# vtk DataFile Version 4.2
vtk output
ASCII
DATASET POLYDATA
POINTS 9712 float
-3.81781 -0.434553 0.845833 -1.51693 0.780333 0.283041 -1.5223 0.790024 0.280153 
-4.26156 -0.733728 0.908744 -1.52767 0.795006 0.27718 -4.14306 -0.712927 0.866639 
-4.25715 -0.717241 0.893018 -3.67991 0.29186 0.767228 -1.38226 0.636985 0.237979 
-1.38224 0.64113 0.238006 -1.52973 0.797509 0.273368 -4.06579 -0.699574 0.834744 
-4.0657 -0.683965 0.834844 -3.12833 0.352951 0.629502 -1.38117 0.637004 0.23398 
-3.9909 -0.686626 0.803944 -3.99081 -0.671321 0.804042 -3.20697 0.364761 0.636662 
-1.90439 0.72776 0.348003 -1.38008 0.637024 0.229981 -2.003 -1.35396 0.347835 
-3.95373 -0.68052 0.781935 -3.91939 -0.659268 0.77455 -3.22478 0.367836 0.629742 
-1.90271 0.72779 0.341832 -1.37899 0.637043 0.225981 -1.55673 0.820727 0.266477 
-2.01451 -1.36499 0.344085 -3.91544 -0.659198 0.760061 -3.22161 0.367893 0.618106 
-1.90653 0.730652 0.336871 -1.3911 0.642101 0.224872 -1.3801 0.638603 0.222468 
-1.56312 0.826538 0.263441 -1.65023 1.01515 0.283704 -2.01272 -1.36495 0.337494 
-3.87952 -0.653433 0.738837 -3.9775 -0.456827 0.761121 -3.21844 0.367949 0.60647 
-1.90484 0.730682 0.330678 -3.04458 -1.12541 0.547893 -3.90754 -0.659057 0.731084 
-3.97347 -0.456755 0.746354 -3.97339 -0.441449 0.746452 -3.21526 0.368006 0.594833 
-1.90315 0.730712 0.324485 -3.02399 -1.11805 0.533458 -3.90359 -0.658986 0.716596 
-3.93647 -0.452783 0.72488 -3.93638 -0.43762 0.724977 -3.29896 0.355752 0.600844 
-1.96398 0.749647 0.331204 -3.86787 -0.668103 0.695673 -3.89964 -0.658916 0.702107 
-3.89843 -0.448683 0.703462 -3.27376 0.35282 0.584431 -2.44936 0.962317 0.423937 
-1.95565 0.746337 0.32341 -3.01796 -1.09552 0.511966 -3.9298 -0.680093 0.694154 
-3.96263 -0.670817 0.700671 -3.92849 -0.452641 0.69562 -3.24861 0.349887 0.5682 
-3.24818 0.423359 0.568673 -2.43502 0.956441 0.413043 -1.94734 0.743027 0.315671 
-2.94368 -1.06639 0.487641 -3.99377 -0.692482 0.692506 -4.02876 -0.683305 0.699306 
-3.95737 -0.456467 0.687284 -3.24524 0.374435 0.556543 -3.18145 0.425064 0.544651 
-3.98971 -0.69241 0.677592 -4.02465 -0.683232 0.684246 -4.02339 -0.464709 0.685654 
-4.09554 -0.457361 0.699304 -3.24202 0.374493 0.544728 -3.1783 0.425121 0.533101 
-2.35679 0.827288 0.381322 -2.34693 0.831295 0.379493 -3.88393 -0.67365 0.644057 
-3.88385 -0.658633 0.644153 -4.12861 -0.477623 0.690664 -4.20395 -0.470176 0.704617 
-3.28254 0.368479 0.540936 -3.2388 0.37455 0.532914 -3.17515 0.425177 0.521551 
-2.23912 0.767898 0.35145 -2.29465 0.800601 0.361939 -2.2946 0.808763 0.361992 
-2.30436 0.821384 0.363887 -2.39683 0.889316 0.381455 -3.84831 -0.667753 0.623894 
-3.81654 -0.647184 0.618314 -4.24013 -0.491313 0.695936 -3.19306 0.368403 0.513378 
-3.15129 0.42176 0.506237 -2.23704 0.767935 0.343809 -2.21849 0.767594 0.340458 
-2.19232 0.763657 0.335706 -2.29241 0.816963 0.354169 -2.35212 0.869481 0.36534 
-1.77475 0.88979 0.26128 -1.61769 0.877197 0.232836 -1.64264 0.901562 0.237523 
-3.84439 -0.667683 0.609538 -3.84431 -0.652804 0.609634 -4.23577 -0.491235 0.679935 
-3.18989 0.36846 0.501741 -3.23208 0.423647 0.5096 -3.16885 0.42529 0.498452 
-2.14902 0.737499 0.320772 -2.3293 0.851504 0.353443 -3.23754 -1.08248 0.488082 
-4.15418 -0.692976 0.64911 -4.53111 -0.544743 0.715239 -4.31203 -0.500763 0.67777 
-3.31842 0.37514 0.512873 -3.22914 0.374723 0.49747 -3.27237 0.430829 0.505344 
-3.20704 0.432294 0.494084 -2.11446 0.722954 0.307762 -2.10681 0.726923 0.306473 
-2.23264 0.807611 0.32878 -2.24128 0.819609 0.33036 -1.38782 0.802008 0.182997 
-2.62327 -0.913004 0.374557 -3.17111 -1.05896 0.46579 -4.14991 -0.6929 0.633438 
-4.26622 -0.495751 0.654499 -3.24765 0.377964 0.48934 -3.33754 0.442109 0.504963 
-3.26903 0.443322 0.493426 -2.10492 0.719587 0.299314 -2.10488 0.726958 0.299361 
-1.86896 0.715606 0.259524 -1.4222 0.682516 0.183995 -1.65847 1.00981 0.226235 
-1.37916 0.791264 0.177549 -3.14728 -1.05122 0.450895 -4.22392 -0.706601 0.630542 
-4.26181 -0.495673 0.638333 -3.3117 0.387892 0.488576 -3.35807 0.446088 0.496634 
-3.26576 0.443381 0.481429 -2.09548 0.701544 0.290835 -2.08785 0.705512 0.28961 
-1.85538 0.709455 0.251398 -1.84451 0.71008 0.249616 -1.83365 0.71061 0.247832 
-1.82278 0.711046 0.246048 -1.75889 0.865603 0.236681 -1.41888 0.680987 0.179387 
-1.60464 0.866304 0.211313 -1.38021 0.793147 0.173856 -3.1235 -1.04348 0.436174 
-4.17938 -0.699444 0.608144 -4.21832 -0.490923 0.61593 -3.35506 0.38196 0.483834 
-3.30837 0.387952 0.476386 -3.33085 0.442228 0.480392 -3.26249 0.443439 0.469431 
-2.10113 0.704914 0.284996 -2.10866 0.715655 0.286284 -2.14826 0.809258 0.293329 
-1.84291 0.703866 0.243551 -1.82124 0.698777 0.240037 -1.82661 0.707783 0.240965 
-1.83198 0.716836 0.241894 -1.74221 0.855443 0.22851 -1.74218 0.861251 0.228548 
-1.41775 0.676621 0.175126 -1.41448 0.678683 0.174617 -1.68591 1.02428 0.220718 
-1.3845 0.797823 0.170684 -4.10021 -0.686167 0.580699 -4.06213 -0.472684 0.57631 
-4.13578 -0.465261 0.587887 -3.40034 0.402024 0.479206 -2.09919 0.704949 0.277884 
-2.10671 0.71569 0.27914 -1.80878 0.699241 0.232412 -1.81955 0.711104 0.234183 
-1.41875 0.678182 0.171243 -1.41657 0.681028 0.170922 -1.68876 1.02792 0.216049 
-4.02229 -0.673084 0.554048 -3.91712 -0.455748 0.539612 -3.98636 -0.44844 0.550217 
-3.44566 0.395988 0.473999 -3.44558 0.409252 0.474084 -2.10485 0.700916 0.271901 
-2.10481 0.70832 0.271949 -2.10477 0.715724 0.271996 -1.83415 0.713555 0.230741 
-1.82333 0.714013 0.229094 -4.01815 -0.67301 0.538842 -3.84709 -0.447765 0.515112 
-3.75288 -0.421879 0.501324 -3.39355 0.389096 0.453939 -3.41724 0.405651 0.457574 
-2.0878 0.694344 0.262469 -2.09531 0.705018 0.263661 -2.10282 0.715759 0.264853 
-1.83252 0.713584 0.22474 -1.83787 0.722685 0.2256 -2.64922 -0.919413 0.324931 
-3.94481 -0.660696 0.513743 -3.84314 -0.447695 0.500623 -3.66042 -0.411566 0.474522 
-3.36523 0.398544 0.437824 -2.06333 0.669991 0.25196 -2.04821 0.670688 0.249783 
-2.07079 0.687771 0.253165 -1.84165 0.719328 0.220334 -1.84161 0.725595 0.220374 
-2.71693 -0.947192 0.325159 -3.94075 -0.660624 0.498829 -3.77658 -0.440105 0.47741 
-3.5714 -0.401633 0.44892 -3.31447 0.378861 0.418555 -3.26913 0.384903 0.412241 
-2.06896 0.673262 0.246056 -2.05386 0.673992 0.243943 -2.08394 0.694413 0.24831 
-1.84 0.719357 0.214287 -1.83997 0.725624 0.214327 -1.42518 0.820184 0.156855 
-2.7585 -0.954425 0.321405 -3.25168 -1.0857 0.387593 -3.93668 -0.660551 0.483916 
-3.80398 -0.443795 0.467417 -3.59579 -0.404814 0.439358 -3.22176 0.366088 0.394012 
-3.17863 0.372054 0.388183 -3.22126 0.452469 0.394568 -2.12092 0.673898 0.246378 
-2.12088 0.681406 0.246427 -2.12084 0.688914 0.246475 -1.85565 0.709501 0.210524 
-1.8438 0.709662 0.208911 -1.84376 0.715953 0.208952 -1.46904 0.671925 0.157622 
-1.65148 0.986404 0.184731 -1.42615 0.82203 0.152869 -2.7558 -0.954376 0.311496 
-3.27106 -1.09404 0.378526 -3.93262 -0.660478 0.469002 -3.86468 -0.4515 0.461537 
-3.70736 -0.418108 0.441004 -3.13457 0.366055 0.37102 -3.17494 0.457166 0.377008 
-2.12763 0.662427 0.240197 -2.12758 0.669973 0.240245 -2.14364 0.684245 0.242469 
-2.07996 0.716495 0.234292 -1.83678 0.706882 0.202113 -1.84211 0.715983 0.202882 
-1.47103 0.674116 0.153584 -1.47422 0.680956 0.154054 -1.43143 0.82304 0.149427 
-1.42498 0.822051 0.148568 -2.7531 -0.954328 0.301587 -3.99733 -0.656879 0.462914 
-3.99724 -0.641118 0.463015 -3.13142 0.366111 0.359471 -2.14173 0.669046 0.235022 
-2.15026 0.680212 0.236194 -2.15773 0.691006 0.237226 -2.10912 0.730631 0.231292 
-1.84049 0.709721 0.196772 -1.84688 0.719413 0.19766 -1.43563 0.823091 0.145787 
-1.41818 0.866282 0.143864 -2.7504 -0.95428 0.291678 -3.33326 -1.10665 0.362767 
-4.02973 -0.663142 0.452188 -3.9931 -0.641044 0.44781 -3.12827 0.366168 0.347921 
-3.16862 0.44513 0.353483 -1.83883 0.709751 0.190702 -1.8388 0.716042 0.190743 
-1.55832 0.755121 0.156289 -1.43123 0.820403 0.141019 -1.41701 0.866303 0.139586 
-2.70362 -0.936879 0.276617 -2.76268 -0.94982 0.283595 -3.32988 -1.10659 0.350381 
-3.92042 -0.66026 0.424261 -3.12512 0.366224 0.336372 -3.18685 0.448944 0.344352 
-1.84894 0.715963 0.186085 -1.85425 0.725141 0.186786 -1.56019 0.757371 0.151812 
-1.43862 0.823116 0.137726 -1.43005 0.820424 0.136682 -1.41051 0.8615 0.134635 
-2.70097 -0.936832 0.266895 -2.775 -0.95563 0.275318 -3.30289 -1.09785 0.335326 
-3.98499 -0.672417 0.417194 -3.14231 0.36931 0.327194 -1.84727 0.715993 0.179965 
-1.85898 0.728572 0.181408 -1.57063 0.760437 0.148303 -1.56313 0.760363 0.147436 
-1.44918 0.828435 0.134749 -1.40402 0.856697 0.12973 -2.64148 -0.914356 0.250998 
-2.78835 -0.961858 0.26703 -3.2545 -1.08121 0.318139 -4.01726 -0.678839 0.406001 
-4.01607 -0.471861 0.407335 -3.87678 -0.439723 0.392038 -3.18084 0.375586 0.320249 
-1.82854 0.707029 0.171879 -1.84557 0.722366 0.173886 -1.56928 0.760461 0.143363 
-1.56499 0.762614 0.142899 -1.43626 0.818625 0.128949 -1.39755 0.851894 0.12487 
-2.62604 -0.909232 0.240175 -3.25121 -1.08115 0.306045 -4.01299 -0.662843 0.390743 
-4.01289 -0.646921 0.390845 -3.90698 -0.443642 0.380915 -3.15626 0.372454 0.30612 
-1.82689 0.707058 0.165832 -1.82685 0.713326 0.165873 -1.59089 0.671566 0.140257 
-1.57595 0.667722 0.138627 -1.57118 0.752428 0.138714 -1.57115 0.757563 0.138747 
-1.56793 0.760485 0.138422 -1.56045 0.760411 0.137619 -1.42975 0.814178 0.123973 
-1.42121 0.811499 0.123038 -1.40389 0.849876 0.12145 -1.39642 0.847551 0.120633 
-2.63631 -0.914264 0.232039 -3.97247 -0.656434 0.371678 -3.97237 -0.640674 0.371779 
-3.9371 -0.447559 0.3695 -3.17447 0.363456 0.296541 -3.21706 0.382083 0.301065 
-2.12149 0.612693 0.18968 -1.87108 0.71832 0.164593 -1.87104 0.724791 0.164635 
-1.57034 0.665156 0.133197 -1.56983 0.752452 0.13376 -1.56236 0.752458 0.132989 
-1.42537 0.811517 0.119274 -1.41685 0.808825 0.118376 -1.40061 0.847986 0.116976 
-1.3974 0.849492 0.116656 -2.63373 -0.914217 0.22256 -3.11745 -1.03406 0.269601 
-3.93416 -0.6504 0.353133 -3.96823 -0.6406 0.356573 -3.86471 -0.439507 0.347736 
-3.21386 0.369706 0.288988 -3.23616 0.385492 0.291306 -1.87576 0.721667 0.159004 
[...]
POINT_DATA 9712
SCALARS z_coord float
LOOKUP_TABLE default
0.845833 0.283041 0.280153 0.908744 0.27718 0.866639 0.893018 0.767228 0.237979 
0.238006 0.273368 0.834744 0.834844 0.629502 0.23398 0.803944 0.804042 0.636662 
0.348003 0.229981 0.347835 0.781935 0.77455 0.629742 0.341832 0.225981 0.266477 
0.344085 0.760061 0.618106 0.336871 0.224872 0.222468 0.263441 0.283704 0.337494 
0.738837 0.761121 0.60647 0.330678 0.547893 0.731084 0.746354 0.746452 0.594833 
0.324485 0.533458 0.716596 0.72488 0.724977 0.600844 0.331204 0.695673 0.702107 
0.703462 0.584431 0.423937 0.32341 0.511966 0.694154 0.700671 0.69562 0.5682 
0.568673 0.413043 0.315671 0.487641 0.692506 0.699306 0.687284 0.556543 0.544651 
0.677592 0.684246 0.685654 0.699304 0.544728 0.533101 0.381322 0.379493 0.644057 
0.644153 0.690664 0.704617 0.540936 0.532914 0.521551 0.35145 0.361939 0.361992 
0.363887 0.381455 0.623894 0.618314 0.695936 0.513378 0.506237 0.343809 0.340458 
0.335706 0.354169 0.36534 0.26128 0.232836 0.237523 0.609538 0.609634 0.679935 
0.501741 0.5096 0.498452 0.320772 0.353443 0.488082 0.64911 0.715239 0.67777 
0.512873 0.49747 0.505344 0.494084 0.307762 0.306473 0.32878 0.33036 0.182997 
0.374557 0.46579 0.633438 0.654499 0.48934 0.504963 0.493426 0.299314 0.299361 
0.259524 0.183995 0.226235 0.177549 0.450895 0.630542 0.638333 0.488576 0.496634 
0.481429 0.290835 0.28961 0.251398 0.249616 0.247832 0.246048 0.236681 0.179387 
0.211313 0.173856 0.436174 0.608144 0.61593 0.483834 0.476386 0.480392 0.469431 
0.284996 0.286284 0.293329 0.243551 0.240037 0.240965 0.241894 0.22851 0.228548 
0.175126 0.174617 0.220718 0.170684 0.580699 0.57631 0.587887 0.479206 0.277884 
0.27914 0.232412 0.234183 0.171243 0.170922 0.216049 0.554048 0.539612 0.550217 
0.473999 0.474084 0.271901 0.271949 0.271996 0.230741 0.229094 0.538842 0.515112 
0.501324 0.453939 0.457574 0.262469 0.263661 0.264853 0.22474 0.2256 0.324931 
0.513743 0.500623 0.474522 0.437824 0.25196 0.249783 0.253165 0.220334 0.220374 
0.325159 0.498829 0.47741 0.44892 0.418555 0.412241 0.246056 0.243943 0.24831 
0.214287 0.214327 0.156855 0.321405 0.387593 0.483916 0.467417 0.439358 0.394012 
0.388183 0.394568 0.246378 0.246427 0.246475 0.210524 0.208911 0.208952 0.157622 
0.184731 0.152869 0.311496 0.378526 0.469002 0.461537 0.441004 0.37102 0.377008 
0.240197 0.240245 0.242469 0.234292 0.202113 0.202882 0.153584 0.154054 0.149427 
0.148568 0.301587 0.462914 0.463015 0.359471 0.235022 0.236194 0.237226 0.231292 
0.196772 0.19766 0.145787 0.143864 0.291678 0.362767 0.452188 0.44781 0.347921 
0.353483 0.190702 0.190743 0.156289 0.141019 0.139586 0.276617 0.283595 0.350381 
0.424261 0.336372 0.344352 0.186085 0.186786 0.151812 0.137726 0.136682 0.134635 
0.266895 0.275318 0.335326 0.417194 0.327194 0.179965 0.181408 0.148303 0.147436 
0.134749 0.12973 0.250998 0.26703 0.318139 0.406001 0.407335 0.392038 0.320249 
0.171879 0.173886 0.143363 0.142899 0.128949 0.12487 0.240175 0.306045 0.390743 
0.390845 0.380915 0.30612 0.165832 0.165873 0.140257 0.138627 0.138714 0.138747 
0.138422 0.137619 0.123973 0.123038 0.12145 0.120633 0.232039 0.371678 0.371779 
0.3695 0.296541 0.301065 0.18968 0.164593 0.164635 0.133197 0.13376 0.132989 
0.119274 0.118376 0.116976 0.116656 0.22256 0.269601 0.353133 0.356573 0.347736 
0.288988 0.291306 0.159004 0.159592 0.129745 0.128243 0.128805 0.128507 0.114714 
0.114409 0.112409 0.112214 0.211902 0.222382 0.338073 0.338173 0.329964 0.27699 
0.27707 0.288485 0.152734 0.152775 0.122973 0.133689 0.13074 0.108484 0.107976 
0.108004 0.20126 0.206101 0.32606 0.323114 0.32432 0.264993 0.267119 0.278244 
0.145363 0.145905 0.117328 0.127948 0.10845 0.106539 0.103944 0.103972 0.104 
0.310854 0.310955 0.258843 0.260969 0.269839 0.139143 0.139661 0.113843 0.123022 
0.103232 0.101896 0.0995293 0.235345 0.292894 0.295749 0.30001 0.250442 0.252556 
0.263324 0.263412 0.132922 0.133418 0.108888 0.111214 0.118731 0.118767 0.116574 
0.0985519 0.0975583 0.0961969 0.0957585 0.275226 0.277934 0.287434 0.236114 0.239964 
0.252295 0.240553 0.128082 0.127693 0.121941 0.103672 0.107408 0.114048 0.113025 
0.0946651 0.0941642 0.0934861 0.091498 0.0915263 0.20779 0.262774 0.262875 0.261706 
0.221987 0.227372 0.227877 0.229707 0.122769 0.122321 0.115598 0.0988456 0.0989795 
0.0957024 0.102641 0.108623 0.0899986 0.0872658 0.0874624 0.106032 0.106075 0.106533 
0.194372 0.247714 0.250131 0.244464 0.211342 0.214781 0.21865 0.134048 0.13288 
0.132397 0.132446 0.131275 0.13018 0.129084 0.128064 0.128111 0.116806 0.116463 
0.093906 0.0933947 0.0937906 0.0916345 0.0975221 0.102845 0.0835908 0.100278 0.0999348 
0.100365 0.100021 0.100064 0.100494 0.172362 0.230485 0.232755 0.231979 0.197416 
0.203729 0.205852 0.212926 0.121168 0.121216 0.121264 0.119806 0.11885 0.117892 
0.117436 0.117985 0.110435 0.110114 0.0891529 0.0886737 0.0888499 0.087337 0.0924032 
0.0968423 0.0950895 0.0799269 0.0936803 0.0930027 0.0927449 0.0930878 0.163379 0.170639 
0.217595 0.217695 0.217066 0.178827 0.188009 0.189597 0.191545 0.112992 0.111633 
0.108377 0.108422 0.110687 0.104063 0.103766 0.0841665 0.0839939 0.084842 0.0852319 
0.0911923 0.0755686 0.0755973 0.086674 0.0877161 0.150971 0.157586 0.200658 0.202636 
0.21813 0.213925 0.164501 0.167001 0.179745 0.178853 0.10173 0.097375 0.0791801 
0.0785726 0.0780637 0.0776464 0.0791287 0.0855788 0.0728579 0.0716629 0.138728 0.187475 
0.187576 0.201964 0.204143 0.149589 0.149666 0.165652 0.0953416 0.0910266 0.0740153 
0.0733939 0.0731733 0.0737555 0.0681156 0.0673992 0.0674282 0.067641 0.12583 0.172415 
0.172516 0.185798 0.18975 0.138127 0.152875 0.15296 0.087881 0.0859429 0.0846782 
0.068823 0.0684715 0.0681176 0.0684462 0.0710213 0.0750647 0.0746509 0.0630618 0.0630908 
0.116305 0.15448 0.156017 0.171355 0.16974 0.127553 0.139146 0.141353 0.0805882 
0.079113 0.0780317 0.0777755 0.0635163 0.0631966 0.0623816 0.0637585 0.066176 0.0695063 
0.069129 0.0592559 0.0590369 0.0593265 0.139713 0.141104 0.151999 0.147782 0.116003 
0.12847 0.129577 0.0730942 0.073138 0.0740144 0.0729761 0.0585938 0.0581688 0.0577204 
0.0582127 0.0588498 0.0643248 0.0641725 0.0546994 0.0549095 0.055224 0.124946 0.12619 
0.137301 0.133497 0.104454 0.117496 0.11667 0.06677 0.0665748 0.0667224 0.0657932 
0.0534157 0.0530733 0.0532299 0.0589728 0.0504813 0.0501703 0.0507794 0.0616248 0.0665168 
0.0662562 0.0669869 0.0670472 0.0664351 0.110277 0.122336 0.120103 0.129152 0.132031 
0.094161 0.10296 0.0604264 0.0597997 0.0602415 0.0594219 0.0482424 0.0483852 0.0534694 
0.0462199 0.0464411 0.0525097 0.0572658 0.0955096 0.112596 0.109301 0.112945 0.081896 
0.0900776 0.090163 0.0535887 0.0534483 0.0537605 0.0532389 0.0434427 0.0430573 0.0432501 
0.0435081 0.0434436 0.0483301 0.048233 0.0418185 0.0437909 0.0485548 0.0799814 0.0800791 
0.0981752 0.0952576 0.0707144 0.0767219 0.0773657 0.0466845 0.0462571 0.0469582 0.0468402 
0.0380929 0.038714 0.0387465 0.0383353 0.0373877 0.0351495 0.0394043 0.0503892 0.0654491 
0.0593784 0.0635961 0.0650419 0.0404074 0.0398035 0.0402656 0.0403081 0.0333213 0.0333531 
0.0335925 0.0337864 0.0331093 0.0304736 0.0308926 0.0500408 0.0481558 0.0506563 0.051771 
0.0353082 0.0324622 0.0338943 0.0338485 0.0287571 0.0286555 0.0216117 0.0219282 0.0217524 
0.0351979 0.0435569 0.0432804 0.0365878 0.0384127 0.0382531 0.0267897 0.0264069 0.027523 
0.0274215 0.0239029 0.0243238 0.0131037 0.0209998 0.0255068 0.0252573 0.0246416 0.0258499 
0.0203202 0.0201238 0.0211093 0.0211005 0.0191876 0.0191551 0.00786763 0.00802779 0.0122088 
0.0134301 0.0128364 0.0139355 0.0139202 0.0147609 0.0147796 0.0143437 0.0143435 -0.00507796 
-0.00460655 -0.0045476 -0.00980485 -0.00865436 -5.38873e-05 0.000592764 0.00548797 0.00555381 0.00767698 
0.00841638 0.00846228 0.00946718 0.0103022 0.0108913 -0.0139036 -0.0134322 -0.0133732 -0.0193329 
-0.0283268 -0.0257298 -0.0126937 -0.00172216 0.00135725 0.00137028 0.0020954 0.00219464 0.0046077 
0.00580138 0.00582081 0.00590184 0.00601136 0.00646647 -0.0221983 -0.0223354 -0.0287526 -0.0284597 
-0.0457505 -0.0420463 -0.0264279 -0.0257483 -0.00491348 -0.00492326 -0.0040761 -0.000313674 0.00135742 
0.00138723 0.00139284 0.00144687 0.00154238 0.00198353 -0.0306449 -0.0316746 -0.0379759 -0.0379052 
-0.0387587 -0.0627722 -0.0580158 -0.0113485 -0.0112168 -0.0105888 -0.0104604 -0.00525833 -0.039557 
-0.0413012 -0.0415456 -0.0477015 -0.0487561 -0.0643271 -0.076479 -0.0727472 -0.0176695 -0.0171183 
-0.0100075 -0.00979424 -0.00968984 -0.0485394 -0.0503873 -0.0506866 -0.0506256 -0.0505645 -0.0577763 
-0.0572348 -0.0584812 -0.0812044 -0.0880202 -0.0840256 -0.0644307 -0.0245442 -0.0239131 -0.0147935 
-0.0145347 -0.0144347 -0.057648 -0.0594734 -0.0602423 -0.0601809 -0.0601195 -0.0684583 -0.0970143 
-0.0941149 -0.0980843 -0.0309274 -0.0302409 -0.0260569 -0.0192658 -0.0191522 -0.0191202 -0.0191696 
-0.0664234 -0.0693768 -0.0697843 -0.0697225 -0.0783275 -0.110739 -0.107602 -0.109753 -0.0369553 
-0.0362746 -0.0239694 -0.0238422 -0.0238103 -0.0238736 -0.0756829 -0.0789732 -0.0880166 -0.124254 
-0.120888 -0.123278 -0.0435531 -0.0424596 -0.0384988 -0.0283279 -0.028405 -0.0286269 -0.0288122 
-0.0286715 -0.0272798 -0.0269265 -0.0265736 -0.0264358 -0.0262981 -0.0259465 -0.0257381 -0.0850915 
-0.0888504 -0.100566 -0.136107 -0.135244 -0.136482 -0.0504597 -0.0495192 -0.0326335 -0.032724 
-0.0329362 -0.0329045 -0.0326294 -0.0322331 -0.0319183 -0.0317659 -0.0318562 -0.0951414 -0.0974746 
-0.098731 -0.0980361 -0.151067 -0.15097 -0.0571947 -0.0562238 -0.0367575 -0.0367264 -0.0366953 
-0.0365288 -0.0364978 -0.0364668 -0.0363007 -0.0361346 -0.0358338 -0.105511 -0.104815 -0.108158 
-0.108096 -0.108033 -0.16892 -0.168822 -0.0642932 -0.115345 -0.114536 -0.118265 -0.117398 
-0.117336 -0.135979 -0.185599 -0.18741 -0.151315 -0.0672286 -0.0377171 -0.0375842 -0.127639 
-0.127564 -0.128297 -0.128234 -0.146725 -0.213438 -0.206712 -0.164007 -0.0789689 -0.0785607 
-0.0412362 -0.0412093 -0.0411824 -0.0409836 -0.136147 -0.136988 -0.137776 -0.136862 -0.157544 
-0.253836 -0.234298 -0.226754 -0.171886 -0.175226 -0.0869467 -0.0869021 -0.0877975 -0.086055 
-0.0852275 -0.0851833 -0.0802041 -0.0812616 -0.0737082 -0.0449215 -0.142646 -0.146286 -0.165885 
-0.247819 -0.237435 -0.184254 -0.179637 -0.183024 -0.0932015 -0.0931571 -0.0923134 -0.0918502 
-0.0869408 -0.0872448 -0.07893 -0.0487875 -0.152753 -0.154733 -0.157712 -0.24775 -0.240319 
-0.20167 -0.193242 -0.19371 -0.103365 -0.100302 -0.101232 -0.100467 -0.100422 -0.098517 
-0.0970595 -0.0941017 -0.094059 -0.0855275 -0.0529198 -0.16297 -0.166214 -0.16615 -0.16947 
-0.170504 -0.194293 -0.188496 -0.260167 -0.252389 -0.219861 -0.210528 -0.20937 -0.212917 
-0.107769 -0.107249 -0.105702 -0.1005 -0.100458 -0.0910475 -0.0574757 -0.0574488 -0.172221 
-0.176725 -0.180226 -0.179003 -0.277869 -0.269579 -0.226854 -0.221028 -0.221756 -0.114533 
-0.112899 -0.110764 -0.106899 -0.106359 -0.0619083 -0.0618813 -0.182703 -0.189947 -0.188665 
-0.279666 -0.295864 -0.284209 -0.271775 -0.237285 -0.240161 -0.117546 -0.11971 -0.120195 
-0.119621 -0.1179 -0.112772 -0.11273 -0.0661321 -0.066105 -0.199604 -0.294022 -0.304907 
-0.295855 -0.263136 -0.254039 -0.25729 -0.164301 -0.124109 -0.124623 -0.124022 -0.124535 
-0.118683 -0.119101 -0.0701953 -0.0701681 -0.20939 -0.22012 -0.308378 -0.319821 -0.313469 
-0.303201 -0.272572 -0.133332 -0.132702 -0.132658 -0.133199 -0.130716 -0.124451 -0.124989 
-0.0747284 -0.0747012 -0.222011 -0.224951 -0.236992 -0.3083 -0.308209 -0.322734 -0.33136 
-0.328099 -0.328002 -0.320575 -0.308515 -0.130772 -0.13073 -0.0790116 -0.0787872 -0.324997 
-0.321925 -0.337089 -0.346128 -0.33932 -0.342632 -0.331913 -0.322478 -0.137093 -0.137051 
-0.0831341 -0.335732 -0.332537 -0.351445 -0.353712 -0.379375 -0.367826 -0.342986 -0.33644 
-0.182222 -0.181165 -0.142751 -0.143372 -0.0866905 -0.291127 -0.352768 -0.346221 -0.343022 
-0.362338 -0.394892 -0.386694 -0.394581 -0.439446 -0.364234 -0.341047 -0.337894 -0.350403 
-0.189431 -0.192407 -0.198874 -0.187968 -0.18501 -0.186935 -0.15169 -0.150957 -0.275955 
-0.314609 -0.307264 -0.366608 -0.356586 -0.356496 -0.376561 -0.402002 -0.4019 -0.414298 
-0.418516 -0.432116 -0.451635 -0.467441 -0.472875 -0.348276 -0.339134 -0.34504 -0.194183 
-0.194131 -0.19408 -0.193824 -0.19486 -0.195776 -0.160958 -0.158046 -0.313803 -0.376972 
-0.36988 -0.373134 -0.44981 -0.413248 -0.352237 -0.19887 -0.200958 -0.200907 -0.202992 
-0.206208 -0.169044 -0.171359 -0.320341 -0.317848 -0.379891 -0.386726 -0.456301 -0.43303 
-0.407796 -0.381916 -0.362098 -0.202263 -0.204299 -0.204249 -0.211754 -0.21626 -0.175607 
-0.177237 -0.321753 -0.403946 -0.426505 -0.206675 -0.21189 -0.18297 -0.181327 -0.106845 
-0.32877 -0.330348 -0.501183 -0.495649 -0.485122 -0.480021 -0.475066 -0.43355 -0.433455 
-0.43336 -0.445922 -0.188734 -0.187862 -0.110232 -0.109935 -0.525847 -0.531487 -0.270243 
-0.243973 -0.342034 -0.336281 -0.34598 -0.50619 -0.511383 -0.546452 -0.447773 -0.451937 
-0.451841 -0.456002 -0.424601 -0.200579 -0.208998 -0.195297 -0.194398 -0.113713 -0.113267 
-0.280338 -0.277024 -0.252981 -0.25432 -0.363405 -0.357974 -0.346877 -0.470393 -0.436831 
-0.428585 -0.20186 -0.200934 -0.285518 -0.283864 -0.260685 -0.259361 -0.257878 -0.374608 
-0.369017 -0.366264 -0.489715 -0.430512 -0.43413 -0.209333 -0.208379 -0.295762 -0.292256 
-0.28908 -0.289024 -0.267441 -0.265915 -0.263243 -0.263192 -0.264298 -0.265556 -0.385812 
-0.380059 -0.374633 -0.369209 -0.480824 -0.48073 -0.485128 -0.435896 -0.439626 -0.217017 
-0.214943 -0.302392 -0.29744 -0.292489 -0.293954 -0.272297 -0.270899 -0.270848 -0.270798 
-0.270544 -0.38812 -0.385379 -0.467655 -0.467566 -0.468917 -0.444932 -0.444847 -0.444762 
-0.22364 -0.226489 -0.298928 -0.298873 -0.277049 -0.276998 -0.276948 -0.27388 -0.275212 
-0.390615 -0.376941 -0.364371 -0.489615 -0.489525 -0.489435 -0.493743 -0.493652 -0.489165 
-0.489075 -0.48459 -0.484501 -0.473948 -0.47386 -0.457624 -0.449974 -0.446193 -0.44611 
-0.231254 -0.234351 -0.310435 -0.31038 -0.27893 -0.27888 -0.278831 -0.277292 -0.277243 
-0.401283 -0.404026 -0.403954 -0.398256 -0.403022 -0.408739 -0.52206 -0.512575 -0.512484 
-0.506791 -0.480157 -0.480071 -0.484143 -0.495538 -0.495449 -0.470062 -0.46618 -0.458331 
-0.462044 -0.458165 -0.454288 -0.236885 -0.241088 -0.320473 -0.318593 -0.406034 -0.403078 
-0.416895 -0.408002 -0.416751 -0.580673 -0.563745 -0.563647 -0.558001 -0.557905 -0.557808 
-0.568622 -0.568524 -0.568425 -0.562963 -0.526566 -0.531295 -0.546197 -0.540926 -0.515483 
-0.506051 -0.510409 -0.519567 -0.532946 -0.528061 -0.504459 -0.508804 -0.482754 -0.490996 
-0.478688 -0.463019 -0.462937 -0.462856 -0.243508 -0.247824 -0.326861 -0.325123 -0.325068 
-0.292409 -0.29327 -0.416556 -0.416485 -0.421478 -0.601609 -0.578375 -0.578277 -0.57249 
-0.572393 -0.59523 -0.619711 -0.61337 -0.600797 -0.560515 -0.576714 -0.542917 -0.552853 
-0.558046 -0.25013 -0.254561 -0.338907 -0.336936 -0.33688 -0.418167 -0.421131 -0.423835 
-0.41741 -0.591833 -0.556294 -0.551159 -0.551068 -0.550976 -0.560965 -0.576922 -0.571415 
-0.490981 -0.490899 -0.490817 -0.260058 -0.261298 -0.345139 -0.306737 -0.437387 -0.437317 
-0.434143 -0.431164 -0.425083 -0.4223 -0.419324 -0.632427 -0.612234 -0.5598 -0.54976 
-0.549671 -0.549582 -0.559437 -0.564509 -0.549314 -0.507461 -0.511573 -0.265634 -0.26446 
-0.353398 -0.302067 -0.429565 -0.621093 -0.56258 -0.562491 -0.552619 -0.552531 -0.547749 
-0.542969 -0.53819 -0.523976 -0.532676 -0.528298 -0.271155 -0.27111 -0.36371 -0.303401 
-0.301922 -0.581143 -0.57084 -0.56094 -0.565658 -0.56557 -0.555876 -0.550987 -0.532068 
-0.531985 -0.510933 -0.278989 -0.27776 -0.367817 -0.310338 -0.54995 -0.545364 -0.549783 
-0.558908 -0.563528 -0.568352 -0.563357 -0.55407 -0.544785 -0.531619 -0.284455 -0.28441 
-0.374101 -0.317368 -0.317322 -0.535143 -0.526626 -0.289866 -0.289822 -0.384189 -0.382163 
-0.327409 -0.327362 -0.418518 -0.436744 -0.560291 -0.331871 -0.296489 -0.296444 -0.394637 
-0.390335 -0.337578 -0.33753 -0.425531 -0.430166 -0.448998 -0.608756 -0.328029 -0.3032 
-0.304449 -0.405177 -0.40056 -0.347875 -0.344642 -0.39897 -0.429297 -0.434342 -0.43678 
-0.43672 -0.43666 -0.4366 -0.43654 -0.452752 -0.322879 -0.321277 -0.311144 -0.313742 
-0.4111 -0.358531 -0.356859 -0.38823 -0.409501 -0.435222 -0.435163 -0.326531 -0.323536 
-0.317794 -0.31775 -0.419414 -0.419359 -0.367669 -0.400087 -0.396016 -0.32603 -0.327197 
-0.328757 -0.413782 -0.405268 -0.386146 -0.384166 -0.378568 -0.416918 -0.332653 -0.335539 
-0.338535 -0.426461 -0.417293 -0.395603 -0.39162 -0.387884 -0.339276 -0.347047 -0.350101 
-0.434546 -0.43675 -0.401078 -0.555234 -0.558893 -0.562729 -0.554957 -0.361925 -0.353543 
-0.352173 -0.356989 -0.440076 -0.444876 -0.561563 -0.557697 -0.561425 -0.37409 -0.363803 
-0.362189 -0.363877 -0.453057 -0.453002 -0.572076 -0.576132 -0.571869 -0.575924 -0.382886 
-0.373938 -0.369045 -0.368999 -0.463829 -0.461129 -0.586789 -0.578583 -0.578515 -0.391746 
-0.38445 -0.379496 -0.377652 -0.469255 -0.601174 -0.597099 -0.592758 -0.384243 -0.386416 
-0.38454 -0.480173 -0.480119 -0.568758 -0.572226 -0.579769 -0.595461 -0.587243 -0.394555 
-0.388016 -0.389566 -0.485454 -0.585941 -0.589744 -0.593546 -0.589612 -0.581811 -0.416754 
-0.403351 -0.391103 -0.496408 -0.588331 -0.588266 -0.425838 -0.41415 -0.399793 -0.507167 
-0.53165 -0.540761 -0.555401 -0.558483 -0.433013 -0.419162 -0.408547 -0.512752 -0.543424 
-0.56769 -0.564437 -0.560895 -0.560835 -0.438185 -0.426114 -0.41533 -0.416989 -0.520924 
-0.517905 -0.51785 -0.542643 -0.591284 -0.580314 -0.566693 -0.445329 -0.433065 -0.420182 
-0.422158 -0.420091 -0.526031 -0.525977 -0.525922 -0.523159 -0.538756 -0.56568 -0.559333 
-0.559276 -0.552631 -0.555867 -0.437949 -0.430792 -0.428986 -0.428941 -0.52835 -0.531352 
-0.531298 -0.574573 -0.568129 -0.558341 -0.555244 -0.442769 -0.435815 -0.433684 -0.433638 
-0.536282 -0.536228 -0.564072 -0.573586 -0.567045 -0.566988 -0.56045 -0.447525 -0.442643 
-0.44048 -0.440435 -0.535823 -0.53577 -0.53855 -0.575692 -0.565923 -0.562734 -0.556727 
-0.55354 -0.550666 -0.454381 -0.447231 -0.543475 -0.543422 -0.548953 -0.540287 -0.52939 
-0.531735 -0.568497 -0.571191 -0.568275 -0.463432 -0.451846 -0.449932 -0.445837 -0.443923 
-0.44201 -0.437917 -0.547899 -0.539439 -0.539387 -0.5311 -0.593044 -0.586212 -0.47032 
-0.45861 -0.458565 -0.456623 -0.450573 -0.448633 -0.446376 -0.550251 -0.536424 -0.533422 
-0.536323 -0.53612 -0.527875 -0.594705 -0.477208 -0.463225 -0.460937 -0.535666 -0.535616 
-0.543826 -0.540784 -0.535366 -0.486387 -0.543157 -0.548399 -0.551381 -0.548247 -0.493307 
-0.500227 -0.504759 -0.554069 -0.509227 -0.553835 -0.548458 -0.516082 -0.542993 -0.566282 
-0.560838 -0.560789 -0.522938 -0.579868 -0.576902 -0.573937 -0.557803 -0.525212 -0.522651 
-0.506617 -0.511243 -0.506529 -0.58164 -0.579006 -0.587451 -0.532009 -0.531963 -0.515363 
-0.520049 -0.515275 -0.574927 -0.577496 -0.538805 -0.54134 -0.526699 -0.521866 -0.521822 
-0.524356 -0.524312 -0.59651 -0.59949 -0.550453 -0.548168 -0.53089 -0.528236 -0.525956 
-0.523676 -0.521396 -0.521353 -0.521309 -0.612686 -0.609954 -0.565241 -0.565194 -0.534871 
-0.534827 -0.530255 -0.530212 -0.527904 -0.527861 -0.525554 -0.611477 -0.614434 -0.617488 
-0.574869 -0.574822 -0.516341 -0.51439 -0.512058 -0.510109 -0.510067 -0.514223 -0.516089 
-0.613095 -0.587269 -0.584514 -0.522634 -0.520661 -0.520619 -0.522508 -0.522466 -0.527058 
-0.527016 -0.540006 -0.535275 -0.526555 -0.52417 -0.524128 -0.524086 -0.526387 -0.532616 
-0.532574 -0.532533 -0.528147 -0.523762 -0.521352 -0.519337 -0.517322 -0.514913 -0.534492 
-0.53445 -0.534409 -0.53197 -0.525538 -0.521104 -0.519066 -0.519026 -0.520982 -0.518934 
-0.518894 -0.520873 -0.520833 -0.520793 -0.520753 -0.520713 -0.524709 -0.526687 -0.52287 
-0.52283 -0.524833 -0.528876 -0.528836 -0.530837 -0.532838 -0.532797 -0.535206 -0.576873 
-0.576831 -0.545389 -0.549888 -0.549847 -0.547742 -0.549764 -0.554261 -0.556694 -0.556652 
-0.556611 -0.556569 -0.556527 -0.554011 -0.553969 -0.553927 -0.558421 -0.558379 -0.560379 
-0.560337 -0.557962 -0.585312 -0.58054 -0.561984 -0.559835 -0.584246 -0.577252 -0.563489 