# vtk DataFile Version 4.2
vtk output
ASCII
DATASET POLYDATA
POINTS 9574 float
-4.27492 -0.849291 0.955596 -4.35613 -0.849659 0.975644 -3.23438 -1.71879 0.681147 
-3.23431 -1.70682 0.681224 -3.23424 -1.69484 0.6813 -3.23418 -1.68287 0.681376 
-3.21293 -1.65862 0.676399 -4.27052 -0.832805 0.939869 -3.23116 -1.70676 0.669674 
-3.23109 -1.69479 0.66975 -3.23103 -1.68282 0.669826 -3.2098 -1.65856 0.664936 
-4.22731 -0.824686 0.914794 -3.22774 -1.65882 0.658429 -3.22768 -1.64685 0.658506 
-3.22761 -1.63488 0.658582 -3.22754 -1.62291 0.658658 -3.22747 -1.61094 0.658734 
-4.22304 -0.824611 0.899122 -3.26681 -1.68316 0.656467 -3.26675 -1.67101 0.656544 
-3.26668 -1.65885 0.656622 -3.26661 -1.6467 0.656699 -3.24543 -1.62272 0.651981 
-4.21877 -0.824535 0.88345 -3.26328 -1.62235 0.645131 -3.26321 -1.61019 0.645208 
-3.26314 -1.59804 0.645285 -3.26307 -1.58589 0.645363 -4.21449 -0.824459 0.867778 
-3.28197 -1.58567 0.638585 -3.2819 -1.57342 0.638663 -3.28183 -1.56118 0.638741 
-3.28176 -1.54893 0.638819 -4.24894 -0.832423 0.860708 -3.3231 -1.62201 0.636245 
-3.32303 -1.60958 0.636325 -3.30082 -1.58526 0.631626 -3.32289 -1.58471 0.636483 
-3.30068 -1.56058 0.631783 -4.24462 -0.832346 0.844875 -3.27525 -1.53657 0.615268 
-3.27519 -1.52433 0.615346 -3.29723 -1.5235 0.620113 -3.31927 -1.52248 0.624882 
-3.36564 -1.53361 0.634811 -3.38878 -1.53267 0.639817 -3.36549 -1.50835 0.634972 
-3.38864 -1.5072 0.639979 -4.28115 -0.840767 0.837799 -3.27203 -1.53652 0.603453 
-3.31614 -1.54729 0.612726 -3.33927 -1.54684 0.617633 -3.33919 -1.5343 0.617712 
-3.33912 -1.52177 0.617792 -3.38543 -1.53261 0.627532 -3.38536 -1.51987 0.627613 
-3.38529 -1.50714 0.627694 -4.31647 -0.848956 0.830152 -3.38194 -1.50708 0.615408 
-3.40614 -1.50628 0.62045 -3.40606 -1.49344 0.620532 -4.57516 -0.885865 0.868471 
-3.40276 -1.50622 0.608064 -3.37845 -1.48156 0.603285 -3.40261 -1.48054 0.608228 
-3.40254 -1.46771 0.608309 -4.47916 -0.86712 0.832708 -3.42359 -1.51809 0.600438 
-3.42352 -1.50514 0.600521 -3.39924 -1.48048 0.595842 -3.39917 -1.46765 0.595923 
-4.43061 -0.858046 0.807094 -3.42004 -1.49214 0.588116 -3.41997 -1.4792 0.588199 
-3.39572 -1.45475 0.583619 -4.34046 -0.840431 0.77372 -4.38316 -0.832078 0.782168 
-3.41664 -1.49208 0.57563 -3.39241 -1.46753 0.571151 -3.39234 -1.45469 0.571233 
-4.29435 -0.83181 0.749429 -4.33591 -0.823417 0.757488 -3.38889 -1.44179 0.558929 
-3.38882 -1.42895 0.559011 -3.34159 -1.39423 0.550369 -3.36455 -1.39218 0.554711 
-3.3886 -1.39044 0.559256 -3.41265 -1.38849 0.563803 -3.4378 -1.38682 0.568554 
-4.25052 -0.823641 0.725895 -4.33146 -0.823338 0.741149 -3.36091 -1.34119 0.54275 
-3.38494 -1.33903 0.547197 -4.20569 -0.815249 0.70249 -4.327 -0.823259 0.724809 
-3.35757 -1.34113 0.530464 -3.38156 -1.33897 0.534811 -3.38149 -1.32613 0.534893 
-3.40548 -1.32366 0.539242 -3.45463 -1.3317 0.548054 -4.08885 -0.792027 0.666518 
-4.24171 -0.806902 0.693998 -3.50245 -1.34018 0.54435 -3.50237 -1.3268 0.544435 
-3.52852 -1.32427 0.549069 -3.58182 -1.30525 0.558617 -3.58159 -1.26408 0.558879 
-3.60882 -1.26083 0.56371 -4.04756 -0.784314 0.644664 -4.19697 -0.798686 0.67093 
-3.47274 -1.32904 0.527005 -3.47266 -1.31577 0.52709 -3.49878 -1.31336 0.531613 
-3.49863 -1.2866 0.531783 -3.52474 -1.28373 0.536309 -3.5507 -1.25343 0.54101 
-4.04342 -0.78424 0.629458 -4.15451 -0.790912 0.648573 -4.15033 -0.80708 0.632798 
-4.18834 -0.798533 0.639266 -4.18412 -0.814866 0.623329 -4.10494 -0.815375 0.59548 
-4.1008 -0.831383 0.57986 -4.10071 -0.8153 0.579963 -2.92021 -2.03676 0.376354 
-4.33644 -1.32768 0.59731 -4.09657 -0.831308 0.564343 -4.17126 -0.831046 0.575728 
-4.24616 -0.881217 0.571285 -4.12915 -0.839189 0.554229 -4.207 -0.839453 0.565776 
-4.36729 -0.926135 0.572908 -4.32502 -0.89952 0.567001 -4.24166 -0.864384 0.555226 
-4.16263 -0.830893 0.544064 -4.36333 -1.02988 0.555551 -4.40644 -1.02326 0.561643 
-4.40634 -1.00577 0.561755 -4.40624 -0.988275 0.561866 -4.40614 -0.970781 0.561978 
-4.32071 -0.933681 0.550265 -4.36274 -0.926055 0.556212 -4.40585 -0.918298 0.562312 
-2.77745 -1.68424 0.318911 -2.80876 -1.69566 0.323092 -2.82493 -1.69637 0.325288 
-2.85624 -1.70731 0.329472 -2.87349 -1.7084 0.331812 -2.88965 -1.70862 0.334011 
-2.88959 -1.69779 0.33408 -2.90683 -1.69851 0.336422 -2.90677 -1.6876 0.336492 
-2.87318 -1.65461 0.332154 -2.87312 -1.64386 0.332223 -2.88928 -1.64364 0.334425 
-4.08065 -1.00792 0.501149 -4.2748 -1.04247 0.527333 -4.35887 -1.04711 0.538745 
-2.88588 -1.54613 0.324597 -2.9031 -1.54579 0.326873 -2.92032 -1.5453 0.32915 
-2.92026 -1.53432 0.32922 -2.93747 -1.5336 0.331499 -2.93722 -1.48937 0.33178 
-2.93716 -1.47832 0.331851 -2.91982 -1.45745 0.32971 -2.91976 -1.44647 0.32978 
-2.93698 -1.44515 0.332062 -2.91964 -1.42451 0.32992 -2.91958 -1.41353 0.32999 
-2.91951 -1.40255 0.330059 -2.98962 -1.42956 0.339125 -3.89965 -0.960932 0.462624 
-4.07633 -0.991758 0.485735 -4.35432 -1.04703 0.522049 -4.35325 -0.856675 0.523261 
-4.39625 -0.848158 0.529 -4.44033 -0.839478 0.534882 -4.44023 -0.82179 0.534995 
-4.35286 -0.787456 0.523702 -4.31074 -0.762322 0.51832 -4.26863 -0.737557 0.512935 
-4.18881 -0.706467 0.502616 -4.18871 -0.689882 0.502722 -4.2274 -0.679843 0.507902 
-4.22731 -0.663087 0.508009 -4.22721 -0.646332 0.508116 -4.26805 -0.635946 0.513582 
-3.0626 -1.55176 0.337083 -3.00518 -1.47355 0.330291 -3.02446 -1.46142 0.332844 
-3.67715 -0.917146 0.420214 -3.70614 -0.910524 0.42397 -3.86324 -0.937117 0.443882 
-4.14407 -0.600856 0.482198 -4.22252 -0.595989 0.49227 -3.61531 -0.90138 0.399294 
-3.76355 -0.912015 0.417576 -3.58383 -0.921686 0.382233 -3.52897 -0.892654 0.375869 
-3.55574 -0.886198 0.37912 -3.61132 -1.50704 0.36825 -3.64024 -1.50617 0.371599 
-3.64016 -1.49196 0.371689 -3.61108 -1.46478 0.368519 -3.58308 -1.43833 0.365468 
-3.52823 -1.40036 0.359394 -3.52815 -1.38663 0.359481 -3.57641 -0.907591 0.355374 
-4.54976 0.013018 0.29711 -4.45554 0.029975 0.290671 -4.40997 0.0471107 0.287617 
-4.50186 0.067343 0.294146 -4.54934 0.0870685 0.297581 -4.45513 0.102339 0.291132 
-4.50155 0.122241 0.294495 -4.50145 0.140541 0.294612 -4.59756 0.163448 0.301451 
-4.49798 -0.097267 0.275441 -4.54542 -0.079459 0.278658 -4.59391 -0.0612308 0.281948 
-2.91937 -1.0784 0.0908497 -2.90452 -1.07814 0.0363922 -2.97447 -1.09706 0.0260496 
-4.12693 -0.0915736 0.0105088 -4.04577 -0.090362 -0.00551685 -4.08299 -0.0741578 -0.00556274 
-3.93168 -0.0886647 -0.020584 -3.96678 -0.0729408 -0.0207802 -3.9626 -0.0891087 -0.0365558 
-3.96251 -0.0728651 -0.0364524 -3.95833 -0.089033 -0.0522281 -3.95824 -0.0727894 -0.0521246 
-3.95406 -0.0889573 -0.0679003 -3.95397 -0.0727137 -0.0677968 -3.94979 -0.0888816 -0.0835725 
-3.98575 -0.073004 -0.0844164 -4.0196 -0.0898983 -0.101525 -4.05655 -0.0736894 -0.102558 
-4.01524 -0.089821 -0.117526 -4.05215 -0.0736113 -0.118724 -3.05602 -1.13269 -0.102066 
-4.01088 -0.0897438 -0.133527 -4.08675 -0.0739281 -0.136439 -3.05283 -1.13264 -0.11379 
-4.00652 -0.0896665 -0.149529 -4.08229 -0.0738492 -0.152779 -3.03013 -1.12446 -0.124514 
-4.00216 -0.0895892 -0.16553 -4.07784 -0.0737703 -0.169118 -3.00748 -1.11629 -0.135065 
-3.9978 -0.0895119 -0.181531 -4.07339 -0.0736914 -0.185458 -3.04324 -1.13247 -0.14896 
-3.99343 -0.0894346 -0.197532 -4.06893 -0.0736125 -0.201797 -3.02062 -1.12429 -0.159423 
-3.98907 -0.0893573 -0.213534 -4.06448 -0.0735335 -0.218137 -3.03685 -1.13235 -0.172406 
-4.0214 -0.0898199 -0.231991 -4.06003 -0.0734546 -0.234476 -3.01427 -1.12418 -0.182696 
-4.01699 -0.0897419 -0.248157 -4.05557 -0.0733757 -0.250816 -2.99174 -1.11601 -0.192813 
-4.01259 -0.0896638 -0.264323 -4.05112 -0.0732968 -0.267155 -4.00818 -0.0895857 -0.280489 
-4.04667 -0.0732179 -0.283495 -4.04231 -0.0900741 -0.299942 -4.04221 -0.073139 -0.299834 
-3.99937 -0.0894296 -0.312821 -4.03776 -0.07306 -0.316174 -3.05816 -1.13675 -0.246599 
-3.14225 -1.15907 -0.254672 -3.95864 -0.105401 -0.325649 -4.07285 -0.090496 -0.336352 
-4.07275 -0.0733761 -0.336243 -3.11763 -1.15024 -0.264799 -3.95428 -0.105324 -0.34165 
-4.02895 -0.0898374 -0.348961 -4.06825 -0.0732963 -0.35276 -3.98615 -0.0891953 -0.361318 
-4.0244 -0.0728233 -0.365192 -3.98596 -0.055685 -0.361105 -3.94546 -0.0885845 -0.373547 
-3.98165 -0.0723621 -0.377377 -3.94527 -0.0554152 -0.373336 -3.94518 -0.0388306 -0.37323 
-3.8218 -0.102799 -0.424124 -4.37844 -0.282157 -0.51464 -4.33225 -0.26079 -0.508426 
-4.28706 -0.239911 -0.502348 -4.1993 -0.128012 -0.490141 -4.15713 -0.109309 -0.484472 
-3.74723 0.292607 -0.428139 -3.71512 0.305047 -0.423831 -4.28287 -0.349622 -0.520703 
-4.3278 -0.334754 -0.52676 -4.28266 -0.313023 -0.52047 -4.28256 -0.294724 -0.520353 
-4.15307 -0.215357 -0.502214 -4.28204 -0.203226 -0.519771 -4.32696 -0.186653 -0.525816 
-4.28184 -0.166628 -0.519537 -4.32623 -0.0570643 -0.524991 -4.28111 -0.0385312 -0.518722 
-4.37203 -0.019842 -0.531042 -4.32571 0.0354989 -0.524401 -4.23659 0.0519439 -0.512131 
-4.19348 0.0688323 -0.506145 -4.19338 0.0867197 -0.506031 -4.19328 0.104607 -0.505918 
-4.15118 0.120723 -0.500074 -4.15108 0.138411 -0.499961 -4.15098 0.1561 -0.499848 
-4.10988 0.171476 -0.494146 -4.10978 0.18897 -0.494035 -4.10968 0.206464 -0.493923 
-4.06959 0.221134 -0.488362 -4.03049 0.235501 -0.48294 -3.9914 0.249498 -0.477519 
-3.88033 0.257018 -0.462299 -3.74327 0.261159 -0.443545 -3.67919 0.270885 -0.434735 
-4.31963 -0.612271 -0.564251 -4.31953 -0.593758 -0.564133 -4.36514 -0.544123 -0.570526 
-4.27418 -0.514147 -0.557064 -4.36493 -0.506662 -0.570287 -4.36472 -0.469201 -0.570048 
-4.31869 -0.445657 -0.56319 -4.14337 -0.144438 -0.535896 -4.18518 -0.127762 -0.541915 
-4.22799 -0.110707 -0.548077 -4.36106 -0.69388 -0.589552 -4.27019 -0.660457 -0.575652 
-4.31497 -0.64921 -0.582349 -4.36075 -0.637688 -0.589194 -4.35751 -0.93729 -0.609175 
-4.31146 -0.889788 -0.601743 -4.01838 -0.808496 -0.555662 -3.80006 -0.745649 -0.521323 
-4.05686 -0.747605 -0.561319 -3.90531 -0.701443 -0.537468 -3.86835 -0.678009 -0.531585 
-4.26569 -0.715271 -0.593658 -4.35614 -0.693793 -0.607624 -4.26538 -0.660372 -0.593308 
[...]
POINT_DATA 9574
SCALARS z_coord float
LOOKUP_TABLE default
0.955596 0.975644 0.681147 0.681224 0.6813 0.681376 0.676399 0.939869 0.669674 
0.66975 0.669826 0.664936 0.914794 0.658429 0.658506 0.658582 0.658658 0.658734 
0.899122 0.656467 0.656544 0.656622 0.656699 0.651981 0.88345 0.645131 0.645208 
0.645285 0.645363 0.867778 0.638585 0.638663 0.638741 0.638819 0.860708 0.636245 
0.636325 0.631626 0.636483 0.631783 0.844875 0.615268 0.615346 0.620113 0.624882 
0.634811 0.639817 0.634972 0.639979 0.837799 0.603453 0.612726 0.617633 0.617712 
0.617792 0.627532 0.627613 0.627694 0.830152 0.615408 0.62045 0.620532 0.868471 
0.608064 0.603285 0.608228 0.608309 0.832708 0.600438 0.600521 0.595842 0.595923 
0.807094 0.588116 0.588199 0.583619 0.77372 0.782168 0.57563 0.571151 0.571233 
0.749429 0.757488 0.558929 0.559011 0.550369 0.554711 0.559256 0.563803 0.568554 
0.725895 0.741149 0.54275 0.547197 0.70249 0.724809 0.530464 0.534811 0.534893 
0.539242 0.548054 0.666518 0.693998 0.54435 0.544435 0.549069 0.558617 0.558879 
0.56371 0.644664 0.67093 0.527005 0.52709 0.531613 0.531783 0.536309 0.54101 
0.629458 0.648573 0.632798 0.639266 0.623329 0.59548 0.57986 0.579963 0.376354 
0.59731 0.564343 0.575728 0.571285 0.554229 0.565776 0.572908 0.567001 0.555226 
0.544064 0.555551 0.561643 0.561755 0.561866 0.561978 0.550265 0.556212 0.562312 
0.318911 0.323092 0.325288 0.329472 0.331812 0.334011 0.33408 0.336422 0.336492 
0.332154 0.332223 0.334425 0.501149 0.527333 0.538745 0.324597 0.326873 0.32915 
0.32922 0.331499 0.33178 0.331851 0.32971 0.32978 0.332062 0.32992 0.32999 
0.330059 0.339125 0.462624 0.485735 0.522049 0.523261 0.529 0.534882 0.534995 
0.523702 0.51832 0.512935 0.502616 0.502722 0.507902 0.508009 0.508116 0.513582 
0.337083 0.330291 0.332844 0.420214 0.42397 0.443882 0.482198 0.49227 0.399294 
0.417576 0.382233 0.375869 0.37912 0.36825 0.371599 0.371689 0.368519 0.365468 
0.359394 0.359481 0.355374 0.29711 0.290671 0.287617 0.294146 0.297581 0.291132 
0.294495 0.294612 0.301451 0.275441 0.278658 0.281948 0.0908497 0.0363922 0.0260496 
0.0105088 -0.00551685 -0.00556274 -0.020584 -0.0207802 -0.0365558 -0.0364524 -0.0522281 -0.0521246 
-0.0679003 -0.0677968 -0.0835725 -0.0844164 -0.101525 -0.102558 -0.117526 -0.118724 -0.102066 
-0.133527 -0.136439 -0.11379 -0.149529 -0.152779 -0.124514 -0.16553 -0.169118 -0.135065 
-0.181531 -0.185458 -0.14896 -0.197532 -0.201797 -0.159423 -0.213534 -0.218137 -0.172406 
-0.231991 -0.234476 -0.182696 -0.248157 -0.250816 -0.192813 -0.264323 -0.267155 -0.280489 
-0.283495 -0.299942 -0.299834 -0.312821 -0.316174 -0.246599 -0.254672 -0.325649 -0.336352 
-0.336243 -0.264799 -0.34165 -0.348961 -0.35276 -0.361318 -0.365192 -0.361105 -0.373547 
-0.377377 -0.373336 -0.37323 -0.424124 -0.51464 -0.508426 -0.502348 -0.490141 -0.484472 
-0.428139 -0.423831 -0.520703 -0.52676 -0.52047 -0.520353 -0.502214 -0.519771 -0.525816 
-0.519537 -0.524991 -0.518722 -0.531042 -0.524401 -0.512131 -0.506145 -0.506031 -0.505918 
-0.500074 -0.499961 -0.499848 -0.494146 -0.494035 -0.493923 -0.488362 -0.48294 -0.477519 
-0.462299 -0.443545 -0.434735 -0.564251 -0.564133 -0.570526 -0.557064 -0.570287 -0.570048 
-0.56319 -0.535896 -0.541915 -0.548077 -0.589552 -0.575652 -0.582349 -0.589194 -0.609175 
-0.601743 -0.555662 -0.521323 -0.561319 -0.537468 -0.531585 -0.593658 -0.607624 -0.593308 
-0.607385 -0.607266 -0.591827 -0.612479 -0.619605 -0.605166 -0.591376 -0.62665 -0.638056 
-0.637938 -0.623082 -0.612509 -0.605761 -0.599015 -0.598908 -0.536611 -0.54669 -0.546595 
-0.546499 -0.541319 -0.526058 -0.516504 -0.530779 -0.535766 -0.530593 -0.52087 -0.525229 
-0.520413 -0.50178 -0.510786 -0.520139 -0.520047 -0.52957 -0.531488 -0.531307 -0.531216 
-0.545707 -0.529767 -0.539376 -0.526074 -0.530606 -0.535232 -0.539945 -0.539856 -0.549736 
-0.554629 -0.504145 -0.512588 -0.521029 -0.508267 -0.508187 -0.512181 -0.529364 -0.533741 
-0.559793 -0.540883 -0.55011 -0.550025 -0.536275 -0.522925 -0.478604 -0.478532 -0.540485 
-0.531681 -0.527341 -0.535778 -0.558407 -0.496849 -0.493243 -0.518772 -0.530931 -0.552626 
-0.539275 -0.507979 -0.507905 -0.556542 -0.534823 -0.547473 -0.551847 -0.538754 -0.519181 
-0.523014 -0.519034 -0.581914 -0.586808 -0.53732 -0.524982 -0.509557 -0.57158 -0.5343 
-0.538214 -0.530163 -0.522426 -0.526201 -0.525989 -0.529614 -0.533238 -0.537091 -0.544637 
-0.526268 -0.5262 -0.533441 -0.537143 -0.540845 -0.540704 -0.540563 -0.540493 -0.519014 
-0.522557 -0.526098 -0.529398 -0.52933 -0.539838 -0.543448 -0.550978 -0.547233 -0.547165 
-0.550771 -0.522498 -0.525684 -0.529119 -0.529054 -0.532488 -0.525426 -0.518865 -0.518801 
-0.518737 -0.525167 -0.512855 -0.516105 -0.512731 -0.512669 -0.522035 -0.528846 -0.528782 
-0.528718 -0.535271 -0.538769 -0.524965 -0.538639 -0.538574 -0.534948 -0.525592 -0.528642 
-0.535323 -0.531888 -0.535196 -0.538763 -0.538699 -0.528267 -0.531955 -0.531893 -0.535265 
-0.541805 -0.545175 -0.538247 -0.548289 -0.551721 -0.551658 -0.544876 -0.538095 -0.541258 
-0.537972 -0.551281 -0.554709 -0.534673 -0.537896 -0.544402 -0.547897 -0.554674 -0.554612 
-0.557831 -0.513135 -0.510194 -0.512968 -0.516024 -0.521626 -0.527792 -0.522185 -0.522129 
-0.525128 -0.521906 -0.518973 -0.521739 -0.521684 -0.530622 -0.533784 -0.536652 -0.536596 
-0.536539 -0.536483 -0.530288 -0.515856 -0.524276 -0.524882 -0.524828 -0.527746 -0.52472 
-0.516345 -0.518966 -0.518912 -0.524964 -0.52491 -0.521837 -0.524804 -0.530487 -0.521966 
-0.519153 -0.519101 -0.524569 -0.527276 -0.516441 -0.518841 -0.518789 -0.524254 -0.527288 
-0.527236 -0.529987 -0.529934 -0.527151 -0.529945 -0.532738 -0.532635 -0.526895 -0.529688 
-0.535007 -0.202422 -0.204537 -0.21169 -0.21476 -0.216356 -0.207184 -0.209298 -0.219058 
-0.221607 -0.222076 -0.221112 -0.222146 -0.223163 -0.210544 -0.211179 -0.214739 -0.270379 
-0.214281 -0.214806 -0.217892 -0.219486 -0.275795 -0.277858 -0.280557 -0.281984 -0.281714 
-0.282503 -0.28392 -0.283512 -0.284307 -0.285732 -0.287403 -0.288844 -0.291043 -0.293115 
-0.3024 -0.24972 -0.251895 -0.307093 -0.261766 -0.317553 -0.321595 -0.331229 0.229453 
0.226116 0.222226 0.218363 0.215068 -0.337499 0.212353 0.209317 0.206281 0.202485 
0.199462 -0.339361 0.212649 0.209335 0.206029 0.202984 0.199444 -0.293887 -0.343442 
0.203222 0.19942 0.196129 0.19237 0.189337 0.185847 0.182598 0.179579 0.176776 
0.173753 -0.300816 -0.303705 -0.344714 -0.350518 -0.354224 0.204451 0.201354 0.197051 
0.192791 0.189505 0.186228 0.182735 0.179698 0.176662 0.174048 -0.347401 -0.351802 
-0.35623 0.188416 0.184423 0.172294 0.169004 0.165526 0.161873 0.158811 0.155749 
0.152686 0.1498 0.147076 0.144334 -0.342733 -0.344999 -0.350094 0.194194 0.14096 
0.13802 0.135225 0.132115 0.129439 0.126456 -0.344003 -0.345569 -0.349251 0.171613 
0.140181 0.13724 0.134443 0.131481 0.128797 0.12567 -0.318636 -0.322875 -0.345275 
-0.345433 0.122691 0.119663 0.116502 0.113703 0.110529 0.107578 0.104611 0.101523 
-0.320471 -0.324717 -0.328322 -0.343039 -0.346002 0.125738 0.115583 0.112546 0.10973 
0.10711 0.104128 0.100924 -0.326221 -0.345013 -0.349401 0.097107 0.0941719 0.090946 
0.0877201 0.0843349 0.0812684 0.0780426 -0.332669 -0.337669 -0.346991 -0.349265 0.077441 
0.0743336 0.0710862 0.06801 0.0649607 0.0618285 0.0584497 0.0486041 0.0453223 0.0420405 
0.028913 0.0256301 0.022359 0.0190675 0.0157619 -0.341907 -0.345587 -0.345105 -0.34599 
-0.347563 -0.347709 0.0771086 0.0739688 0.0707516 0.0674137 0.0641879 0.0610008 0.0280961 
0.0248056 0.0215281 0.0182246 0.0149342 -0.345861 -0.346723 -0.346856 0.0173484 0.0141345 
0.0108526 0.00748028 -0.34517 -0.348134 -0.35697 0.0100465 0.00698232 -0.202481 -0.206146 
-0.209811 -0.202062 -0.207068 -0.211287 -0.216449 -0.220705 -0.224977 -0.230152 -0.234472 
-0.192378 -0.200802 -0.208991 -0.241274 -0.245034 -0.248794 -0.252554 -0.217834 -0.219899 
-0.532939 -0.245584 -0.2466 -0.250369 -0.255412 -0.211376 -0.213367 -0.258205 -0.262622 
-0.26872 -0.271508 -0.274611 -0.208793 -0.212565 -0.528604 -0.264355 -0.218838 -0.216981 
-0.525847 -0.282028 -0.288292 -0.29212 -0.294867 -0.299778 -0.303607 -0.306314 -0.31013 
-0.313946 -0.317762 -0.321578 -0.324604 -0.326413 -0.330199 -0.335209 -0.33777 -0.341556 
-0.345342 -0.349128 -0.354202 -0.358001 -0.3618 -0.364271 -0.368056 -0.371842 -0.375628 
-0.376654 -0.380414 -0.574237 -0.226991 -0.379964 -0.391723 -0.394553 -0.397365 -0.402107 
-0.57514 -0.541815 -0.542357 -0.390097 -0.395364 -0.397832 -0.4017 -0.407017 -0.409887 
-0.573162 -0.572388 -0.542569 -0.547205 -0.212154 -0.535562 -0.418647 -0.422588 -0.424498 
-0.425878 -0.573355 -0.545772 -0.547962 -0.548493 -0.543703 -0.427499 -0.573515 -0.571266 
-0.561635 -0.54954 -0.547594 -0.511404 -0.445812 -0.444597 -0.446943 -0.44979 -0.575086 
-0.575861 -0.572285 -0.550297 -0.557443 -0.233148 -0.245268 -0.51953 -0.453595 -0.45587 
-0.458658 -0.462517 -0.463635 -0.570491 -0.569988 -0.573653 -0.575903 -0.576001 -0.573906 
-0.561237 -0.559249 -0.556368 -0.22989 -0.241717 -0.527532 -0.452975 -0.45577 -0.460711 
-0.456948 -0.460756 -0.573167 -0.57328 -0.574063 -0.571943 -0.564501 -0.563357 -0.561327 
-0.560939 -0.248348 -0.242533 -0.464459 -0.465566 -0.472177 -0.476036 -0.573234 -0.233752 
-0.230996 -0.474259 -0.478127 -0.479172 -0.586419 -0.234591 -0.233789 -0.225881 -0.509975 
-0.53769 -0.0791817 -0.517893 -0.478242 -0.526049 -0.567533 -0.568835 -0.493153 -0.230534 
-0.534446 -0.56657 -0.564984 -0.235454 -0.548217 -0.572751 -0.55962 -0.560742 -0.228341 
-0.58771 -0.235987 -0.577243 -0.60337 -0.247799 -0.534528 -0.253205 -0.2493 -0.243699 
-0.542986 -0.243034 -0.255907 -0.117793 -0.170718 -0.231066 -0.246272 -0.25658 -0.58214 
-0.126404 -0.145777 -0.163897 -0.177909 -0.22133 -0.231338 -0.241149 -0.246445 -0.558464 
-0.596955 -0.592978 0.886398 -0.160698 -0.172619 -0.181213 -0.196462 -0.202823 -0.556411 
-0.592705 -0.592982 -0.591798 0.864173 0.892663 0.8677 0.81522 0.781143 0.748912 
-0.166829 -0.178949 -0.185852 -0.194113 -0.205751 -0.559768 -0.589862 -0.590155 -0.588993 
0.855188 0.896859 0.878216 0.800512 0.767287 0.740935 -0.507271 -0.544588 -0.561545 
-0.591875 -0.59361 -0.591105 0.831816 0.821428 0.834183 0.733293 0.738136 0.743394 
-0.501158 -0.537654 -0.562606 -0.584501 -0.581986 0.829203 0.813218 0.802903 0.725688 
0.705862 0.714932 -0.504285 -0.576833 0.82659 0.810624 0.6841 0.697158 0.691542 
0.686053 -0.570157 -0.571069 0.875348 0.840406 0.688027 0.672954 0.671673 -0.519999 
-0.530374 -0.569854 -0.570835 -0.567166 0.872637 0.837773 0.710999 0.695094 0.670321 
0.673706 -0.523181 -0.532585 -0.572167 -0.571771 -0.568553 -0.567 0.81875 0.792119 
0.691499 0.680645 0.665185 0.66372 -0.495561 -0.566728 -0.533563 -0.575171 -0.569915 
0.822042 0.79474 0.698781 0.682839 0.667062 0.66573 0.674412 -0.485725 -0.53578 
-0.537183 -0.569764 0.824969 0.792164 0.672937 0.666651 0.660193 -0.50171 -0.534712 
-0.536761 -0.538159 -0.571248 -0.564954 -0.567844 0.828184 0.795055 0.677955 -0.509264 
-0.558108 -0.569487 -0.569201 0.837532 0.803679 0.782145 0.680255 -0.516869 -0.54993 
-0.558588 -0.559058 -0.570273 -0.569298 0.795937 0.642114 -0.524715 -0.55661 -0.557242 
-0.556524 -0.561669 -0.566832 -0.56601 -0.567592 -0.566503 -0.566544 -0.568066 0.804592 
0.788322 0.632755 -0.527869 -0.563048 -0.564676 -0.565716 0.814357 0.791775 0.743186 
0.727401 0.655791 0.61605 -0.531023 -0.56913 -0.56805 -0.563686 -0.561459 -0.563031 
-0.565695 -0.576106 0.740515 0.709876 0.690264 -0.529376 -0.581762 -0.569056 -0.562132 
-0.560304 -0.562556 -0.569289 -0.573872 -0.575989 0.799249 0.743051 0.717255 0.701737 
-0.53733 -0.580856 -0.56122 -0.564864 -0.56759 -0.568187 -0.571262 -0.572659 -0.574882 
-0.572936 -0.578948 0.735061 0.718973 0.713509 0.702733 0.636792 0.60564 0.58052 
-0.550388 -0.582591 -0.600997 -0.605306 -0.591508 -0.565367 -0.566046 -0.567991 -0.565606 
-0.565885 -0.567297 -0.56702 -0.569229 -0.570585 -0.574549 -0.571527 -0.567044 0.742813 
0.731878 0.720943 0.700023 0.633768 0.602712 0.582063 -0.553597 -0.610912 -0.568972 
-0.567918 -0.569297 -0.565374 0.723381 0.707257 0.717215 0.628725 0.606703 0.57651 
0.552081 -0.551897 -0.604469 -0.596754 -0.565352 -0.570234 -0.574298 -0.573053 -0.572625 
-0.569571 0.693571 0.586988 0.553398 0.522303 0.504059 -0.540271 -0.600581 -0.587108 
-0.580149 -0.573318 -0.565086 -0.562457 -0.57116 0.671409 0.656149 0.583989 0.563368 
0.531135 0.508514 -0.52471 -0.59136 -0.576429 -0.574888 -0.56212 -0.565803 -0.563827 
0.659596 0.640138 0.638664 0.536184 0.513263 0.484439 -0.489783 -0.504965 -0.595783 
-0.576458 -0.582698 -0.588939 -0.577389 -0.571616 -0.567684 -0.565321 -0.563328 0.666068 
0.650846 0.644835 0.549941 0.538114 0.506564 -0.484749 -0.488099 -0.59755 -0.589911 
-0.594176 -0.580342 -0.575872 -0.568662 -0.564613 -0.56046 -0.569341 -0.570257 -0.566236 
-0.562825 0.657366 0.651431 0.669207 0.539227 0.527306 -0.497588 -0.508282 -0.599317 
-0.588928 -0.604803 -0.590579 -0.583302 -0.578831 -0.572932 -0.568891 -0.568082 -0.570272 
-0.569789 -0.56715 -0.56514 0.804393 0.81104 0.788806 0.761473 0.756275 0.740395 
0.735042 0.729535 0.671272 0.65028 0.512386 -0.546591 -0.553481 -0.560402 -0.605417 
-0.603166 -0.601084 -0.590646 -0.586956 -0.575234 -0.571189 -0.571202 -0.569317 0.79607 
0.7799 0.753539 0.743224 0.748283 0.732791 0.727205 0.711859 0.658655 0.642672 
0.505535 0.493708 -0.571202 -0.568436 -0.570698 -0.572793 -0.607237 -0.604959 -0.60593 
-0.592365 -0.583307 -0.572133 -0.56884 0.797651 0.815713 0.776875 0.745884 0.690074 
0.698761 0.683381 0.672992 0.638147 0.51039 -0.564083 -0.570831 -0.604172 -0.605179 
-0.609057 -0.606753 -0.571672 -0.567659 0.651098 0.649493 0.643882 0.642347 0.635311 
-0.567011 -0.573734 -0.605531 -0.606302 -0.607589 -0.605186 -0.602891 -0.603966 -0.601596 
-0.599734 -0.603642 -0.5726 -0.568576 0.726881 0.707333 0.637111 0.631414 0.621452 
0.615549 0.617735 0.630539 0.62378 0.528026 -0.579623 -0.581575 -0.606621 -0.611423 
-0.61613 -0.617041 -0.610949 -0.60484 -0.60257 -0.603586 -0.604796 -0.602592 -0.600521 
-0.601564 -0.605462 -0.573528 -0.569492 0.753224 0.753311 0.744998 0.716768 0.708689 
0.704572 0.700004 0.688317 0.650297 0.644515 0.613025 0.611187 0.627658 0.616206 
0.604754 0.593302 0.58185 0.513138 0.517289 -0.247666 -0.592552 -0.599386 -0.591084 
-0.574064 -0.624964 -0.621937 -0.615061 -0.573058 0.755345 0.75122 0.738815 0.722459 
0.71402 0.697949 0.69749 0.656288 0.650625 0.610502 0.600471 0.620039 0.608677 
0.597316 0.585954 0.574593 0.506423 0.50647 0.467007 -0.215038 -0.234959 -0.261198 
-0.279135 -0.585573 -0.582445 -0.579672 -0.554962 -0.626262 -0.623157 -0.620034 -0.621082 
-0.575385 0.765525 0.761531 0.753266 0.719241 0.719174 0.706474 0.6935 0.692584 
0.668515 0.642262 0.625827 0.621027 0.658133 0.652384 0.587918 0.59356 0.608194 
0.583096 0.571735 0.560373 0.549011 0.541732 0.53028 0.511211 0.503565 0.485116 
0.466109 0.451548 -0.277029 -0.289678 -0.302328 -0.56859 -0.557632 -0.614276 -0.623424 
-0.628549 -0.621322 0.771975 0.763662 0.763678 0.73369 0.712841 0.659198 0.627212 
0.618948 0.646942 0.645579 0.574081 0.583164 0.596896 0.580238 0.568877 0.553476 
0.546153 0.538852 0.51965 0.519826 0.516221 0.485824 0.463273 0.448734 -0.269929 
-0.279556 -0.291676 -0.55831 -0.620503 -0.621744 -0.62262 -0.627141 -0.642536 -0.577493 
-0.577042 -0.573027 0.778196 0.77413 0.76997 0.682988 0.644454 0.647303 0.641643 
0.463764 0.455806 -0.292113 -0.610999 -0.613578 -0.625603 -0.631137 -0.648127 -0.578434 
-0.575357 -0.576199 0.771244 0.771429 0.776105 0.68467 0.66893 0.626484 0.621553 
0.630502 0.633003 0.627036 0.475123 0.466933 -0.2925 -0.595165 -0.600069 -0.606031 
-0.603738 -0.608421 -0.613009 -0.575198 0.761276 0.769374 0.774014 0.675081 0.663162 
0.620975 0.645071 0.643669 0.633204 0.483175 0.471155 -0.3082 -0.315056 -0.601057 
-0.602233 -0.601064 -0.595046 -0.599906 -0.604344 -0.585231 -0.582812 -0.570725 0.783339 
0.767258 0.746997 0.751271 0.656579 0.648361 0.643691 0.635426 0.630614 0.622302 
0.641037 0.630571 0.476399 0.468131 0.449156 0.43072 -0.327348 -0.333915 -0.340275 
-0.603248 -0.604398 -0.60183 -0.599608 -0.604314 -0.578605 -0.574741 -0.570781 -0.568132 
0.777274 0.75687 0.74502 0.74926 0.658142 0.649877 0.645148 0.633347 0.621234 
0.606841 0.4734 0.465107 0.449557 0.431073 -0.33035 -0.330615 -0.337124 -0.343429 
-0.603175 -0.600418 -0.605438 -0.606563 -0.568032 0.774753 0.762785 0.581072 0.586431 
0.584101 0.438042 0.419553 0.404658 0.392926 -0.353647 -0.356534 -0.355823 -0.352182 
-0.595219 -0.589175 -0.590653 -0.567564 -0.567727 0.546285 0.539854 0.544078 0.544905 
0.534732 0.372534 0.360992 0.349449 0.343047 0.338854 0.329322 0.314813 0.307473 
0.29525 0.272885 0.230525 0.216139 0.201908 0.19084 -0.349376 -0.35216 -0.575927 
-0.568726 -0.604826 -0.576304 -0.572442 -0.568486 -0.568643 0.543861 0.551534 0.548721 
0.545852 0.550432 0.378122 0.36356 0.351828 0.345189 0.333267 0.318989 0.316622 
0.304399 0.287748 0.271682 0.254908 0.229161 0.217954 0.203415 0.187658 -0.349341 
-0.346003 -0.578785 -0.580823 -0.614795 -0.573801 -0.569906 0.233212 0.220675 0.206563 
-0.346284 -0.351975 -0.617912 -0.615052 -0.612155 -0.605492 -0.574742 -0.568055 0.224911 
0.212688 0.200465 -0.340408 -0.352734 -0.363353 -0.381458 -0.399942 -0.585793 -0.59762 
-0.60987 -0.60684 -0.60045 -0.60943 -0.582553 -0.578131 -0.571531 -0.564106 0.549348 
0.24441 0.23229 0.226905 0.209614 -0.206545 -0.337331 -0.349451 -0.351372 -0.36548 
-0.392741 -0.620051 -0.616082 -0.601442 -0.594884 -0.603752 -0.576673 -0.57013 -0.563457 
-0.562234 0.244379 0.236128 0.222703 -0.217196 -0.253735 -0.254237 -0.267591 -0.271886 
-0.297361 -0.400978 -0.416833 -0.589214 -0.613186 -0.626171 -0.647278 -0.636846 -0.632448 
-0.667094 -0.710671 -0.581787 -0.584674 -0.573725 -0.574653 -0.570086 -0.5621 0.51908 
0.515819 0.234717 0.234822 0.22791 0.0322791 -0.237796 -0.26357 -0.275397 -0.277337 
-0.293861 -0.316378 -0.418809 -0.419907 -0.592423 -0.616452 -0.629438 -0.642423 -0.656208 
-0.668965 -0.675759 -0.701036 -0.727008 -0.588798 -0.578741 -0.576514 -0.589267 -0.571603 
-0.573773 -0.574639 -0.573532 -0.589534 -0.59012 -0.587274 -0.579567 0.520152 0.25118 
0.029268 -0.103032 -0.337421 -0.612389 -0.625491 -0.764871 -0.778338 -0.791806 -0.790143 
-0.591159 -0.58849 -0.575786 -0.574795 -0.570534 -0.573251 -0.588518 -0.587736 -0.586895 
-0.580527 0.510684 0.251902 -0.365889 -0.378538 -0.394728 -0.62158 -0.622985 -0.775613 
-0.57539 -0.579421 -0.576304 -0.577017 -0.579662 -0.580302 -0.584234 0.505039 0.248748 
-0.355794 -0.378121 -0.390658 -0.749996 -0.77035 -0.584754 -0.580435 -0.577306 -0.578013 
-0.580657 -0.5793 -0.579878 0.516033 0.463482 0.445641 0.428145 0.417128 0.400446 
0.389593 0.386886 0.38681 0.228074 0.215029 -0.0733227 -0.474978 -0.620966 0.499605 
0.465205 0.447408 0.436391 0.419423 0.400194 0.389577 0.398069 0.389667 0.392708 
0.225171 0.212148 -0.0713445 -0.081684 -0.379579 -0.405773 -0.614241 -0.628422 -0.629508 
0.484121 0.471051 0.467237 0.459144 0.455026 0.450606 0.443021 0.398446 0.398733 
0.389695 0.250783 0.235525 0.222267 0.209268 0.0383404 0.0261063 0.0143329 0.00410937 
-0.425195 -0.476219 -0.498989 -0.649036 -0.662022 -0.662705 -0.669552 -0.675942 -0.688479 
-0.682815 0.405144 0.377902 0.366076 0.362407 0.350287 0.25333 0.234289 0.0946152 
0.0831748 0.0471131 0.0351771 0.0230721 -0.558934 -0.584492 -0.604698 -0.698113 -0.625281 
-0.630772 -0.627328 -0.628262 0.361157 0.3631 0.341968 0.258054 0.241801 0.0910854 
0.0439305 0.0320687 0.020125 -0.562418 -0.582063 -0.584384 -0.636618 -0.628583 -0.625317 
-0.618085 0.341579 0.327047 0.317538 0.277783 0.267437 0.252924 0.126037 0.114677 
0.101168 0.0651066 0.052853 -0.557571 -0.567939 -0.575701 -0.585105 -0.603201 -0.604726 
-0.617156 -0.588336 -0.59314 -0.608941 -0.61401 -0.618658 -0.623203 -0.6243 0.333497 
0.319292 0.30756 0.262536 0.252519 0.246055 0.233832 0.127279 0.11622 0.103347 
0.0633514 -0.550646 -0.563184 -0.560661 -0.56783 -0.579949 -0.614918 -0.593895 -0.599047 
-0.607605 -0.612292 -0.620798 -0.6144 0.318695 0.302349 0.290712 0.279074 0.273364 
0.261442 0.253255 0.113749 0.101444 0.0605314 0.0474127 -0.598754 -0.605356 -0.606779 