# vtk DataFile Version 4.2
vtk output
ASCII
DATASET POLYDATA
POINTS 7129 float
-2.50874 -1.82789 0.527829 -4.41847 -3.58493 0.985072 -4.41837 -3.568 0.98518 
-4.21682 -3.37412 0.936148 -2.18805 -1.41462 0.435932 -2.18801 -1.40712 0.43598 
-3.6486 -1.60824 0.795069 -3.64852 -1.59451 0.795156 -2.81938 -1.6031 0.581176 
-2.80371 -1.58278 0.577524 -2.78916 -1.56331 0.574137 -2.8036 -1.56251 0.577653 
-3.64499 -1.60817 0.781828 -3.67277 -1.60789 0.788582 -3.70166 -1.60791 0.795605 
-2.20991 -1.46502 0.42723 -2.28122 -1.51394 0.443913 -2.21875 -1.45681 0.429407 
-2.8167 -1.60305 0.571332 -2.80105 -1.58273 0.567743 -2.80099 -1.5726 0.567808 
-2.78645 -1.55319 0.564479 -2.78639 -1.54312 0.564543 -3.72692 -1.6217 0.788947 
-3.72684 -1.60761 0.789036 -3.69783 -1.57991 0.782309 -2.23352 -1.48541 0.425753 
-2.75376 -1.5339 0.547834 -2.78374 -1.54307 0.554822 -3.69424 -1.59381 0.768746 
-3.72306 -1.59346 0.775533 -2.19709 -1.473 0.410429 -2.66727 -1.58514 0.518425 
-2.68167 -1.58543 0.521756 -2.69495 -1.58485 0.524836 -2.6949 -1.57514 0.524898 
-2.6815 -1.55648 0.52194 -2.78104 -1.53295 0.545164 -3.66169 -1.58001 0.748693 
-3.69048 -1.57978 0.755361 -2.65142 -1.57591 0.506211 -2.66469 -1.5755 0.509235 
-2.6924 -1.5848 0.515471 -2.69235 -1.5751 0.515533 -2.71955 -1.49562 0.522334 
-3.63032 -1.56675 0.729127 -3.68681 -1.57972 0.741887 -3.71557 -1.57924 0.748437 
-3.71549 -1.56515 0.748527 -2.71752 -1.59382 0.51223 -2.63491 -1.44352 0.494889 
-2.64794 -1.40431 0.498105 -3.65433 -1.56604 0.722071 -3.74178 -1.59317 0.741431 
-2.65954 -1.55624 0.490855 -2.65949 -1.54665 0.490916 -2.63242 -1.44348 0.485748 
-2.65894 -1.45077 0.491526 -2.7141 -1.4464 0.503687 -3.7978 -1.62111 0.740642 
-3.86079 -1.63593 0.75438 -3.8928 -1.63595 0.761417 -2.61718 -1.52917 0.473205 
-2.60495 -1.51155 0.470698 -2.67086 -1.46946 0.485251 -2.64315 -1.44235 0.479471 
-2.77021 -1.49246 0.506535 -2.77015 -1.48238 0.506599 -3.85691 -1.63586 0.740157 
-3.92094 -1.65065 0.753873 -4.02364 -1.68254 0.775814 -2.58917 -1.49324 0.458975 
-2.60239 -1.49277 0.461781 -2.65428 -1.5178 0.472598 -2.64096 -1.49949 0.469912 
-2.64091 -1.48996 0.469972 -2.65412 -1.48904 0.472781 -2.69606 -1.50653 0.481544 
-2.72364 -1.51447 0.487332 -2.69595 -1.487 0.481668 -2.66827 -1.45977 0.476003 
-2.66821 -1.45012 0.476064 -2.66816 -1.44047 0.476125 -2.72336 -1.46503 0.487646 
-3.82102 -1.62089 0.719255 -3.88497 -1.63582 0.732705 -3.91682 -1.62055 0.739575 
-2.39312 -1.68387 0.408256 -2.43507 -1.71023 0.416789 -2.67953 -1.56517 0.46877 
-2.69383 -1.5651 0.471747 -2.76554 -1.6032 0.486387 -2.75113 -1.58361 0.483535 
-2.67931 -1.52634 0.469017 -2.666 -1.50797 0.466386 -2.7068 -1.52487 0.47475 
-2.73545 -1.53357 0.480648 -2.72104 -1.51442 0.477793 -2.69338 -1.48695 0.472243 
-2.73528 -1.50373 0.480837 -2.76502 -1.51251 0.486964 -2.70646 -1.46592 0.475125 
-2.70641 -1.45609 0.475187 -3.84899 -1.60624 0.711897 -3.28782 -1.56027 0.584198 
-4.1194 -1.73175 0.75275 -4.04652 -1.66724 0.73835 -3.37594 -1.60876 0.590229 
-3.97209 -1.65081 0.709325 -3.25948 -1.57295 0.556 -3.30339 -1.58429 0.564538 
-3.30332 -1.57186 0.564617 -3.37252 -1.59596 0.578024 -3.30318 -1.54699 0.564775 
-3.23714 -1.50032 0.552156 -3.3723 -1.55776 0.578267 -3.44589 -1.58262 0.592531 
-3.23429 -1.56101 0.540047 -3.25619 -1.56065 0.544263 -3.34618 -1.59636 0.561312 
-3.27794 -1.53542 0.548637 -3.34596 -1.55846 0.561552 -3.39311 -1.57015 0.570537 
-3.44245 -1.58256 0.579939 -3.23116 -1.57311 0.528246 -3.25304 -1.57284 0.53237 
-3.27491 -1.57239 0.536495 -3.46323 -1.608 0.57172 -3.48838 -1.60775 0.576462 
-3.56728 -1.63454 0.591132 -3.08583 -1.55286 0.490451 -3.1055 -1.55245 0.494081 
-3.14488 -1.5629 0.50127 -3.18646 -1.57423 0.508857 -3.24996 -1.59728 0.5204 
-3.2718 -1.59701 0.524432 -3.51111 -1.60778 0.568501 -3.53733 -1.60764 0.573339 
-3.56355 -1.60727 0.578178 -3.24708 -1.65845 0.508196 -3.16272 -1.59826 0.493412 
-3.16265 -1.58638 0.493487 -3.22498 -1.60945 0.504568 -3.2468 -1.60946 0.508507 
-3.29052 -1.62136 0.51631 -3.50759 -1.60772 0.555594 -3.53378 -1.60757 0.560322 
-3.58733 -1.62088 0.569889 -3.70017 -1.50715 0.591096 -3.72963 -1.50604 0.596422 
-4.2181 3.37252 0.720595 -2.34373 -1.69018 0.337258 -2.61905 -1.61346 0.386422 
-2.64636 -1.6234 0.391169 -2.70102 -1.65246 0.400604 -3.55778 -1.85203 0.550369 
-3.61097 -1.62064 0.561459 -3.58356 -1.59337 0.556823 -3.55616 -1.56633 0.552184 
-3.63875 -1.52301 0.567082 -3.66709 -1.52203 0.572091 -4.09879 3.26937 0.683543 
-2.35252 -1.70792 0.330984 -2.34154 -1.69014 0.329218 -2.94963 -1.60065 0.434783 
-3.58174 -1.90894 0.541576 -3.63738 -1.92793 0.551034 -3.7246 -1.95057 0.565917 
-3.69358 -1.6634 0.56267 -3.66402 -1.63467 0.557782 -3.66394 -1.62059 0.557871 
-2.36016 -1.71638 0.324494 -2.35027 -1.6995 0.322952 -2.94674 -1.6006 0.424188 
-3.68968 -1.6349 0.549135 -3.6896 -1.62068 0.549225 -3.66008 -1.59234 0.544458 
-3.68944 -1.59225 0.549406 -3.68936 -1.57803 0.549497 -3.74816 -1.5913 0.559308 
-3.87346 -1.6348 0.580106 -3.84176 -1.6053 0.574979 -2.48844 -1.55177 0.339034 
-2.45349 -1.5174 0.333535 -2.46429 -1.50755 0.335384 -2.51109 -1.52305 0.342969 
-2.56006 -1.53927 0.350907 -4.07042 -1.95376 0.566995 -4.4312 -2.12562 0.622192 
-4.52131 -2.15468 0.63608 -4.38752 -2.06839 0.615774 -4.4309 -2.07314 0.622526 
-4.38733 -2.03378 0.615994 -4.18182 -1.91405 0.584711 -2.505 -1.71392 0.315429 
-2.50495 -1.70483 0.315487 -2.51686 -1.70524 0.317299 -2.46898 -1.47132 0.311692 
-2.5285 -1.46709 0.320792 -2.5404 -1.46593 0.322615 -2.56534 -1.47339 0.326362 
-4.47121 -2.16642 0.611817 -4.13997 -1.97622 0.562709 -4.06605 -1.92184 0.551836 
-4.13979 -1.94374 0.562915 -4.21786 -1.96719 0.574645 -4.34044 -2.01238 0.592999 
-4.298 -1.97413 0.586809 -2.50261 -1.71388 0.306654 -2.50255 -1.70479 0.306712 
-2.42109 -1.44812 0.296473 -2.45469 -1.46292 0.301352 -2.56298 -1.49208 0.317207 
-2.5499 -1.47394 0.315397 -2.56287 -1.47335 0.317326 -2.61383 -1.49791 0.324709 
-3.48059 -1.80788 0.451062 -3.50655 -1.80944 0.454901 -4.13579 -1.99239 0.546933 
-4.1357 -1.97615 0.547037 -3.86058 3.06578 0.542509 -2.42003 -1.66669 0.286647 
-2.44276 -1.67639 0.289857 -2.3971 -1.43278 0.285016 -2.43066 -1.44769 0.289753 
-2.46423 -1.4623 0.294491 -2.4761 -1.46161 0.296209 -2.49882 -1.46827 0.299439 
-2.59852 -1.52733 0.313401 -3.85156 -1.94973 0.491171 -3.72688 -1.86586 0.473783 
-3.7268 -1.85139 0.473875 -3.8513 -1.90468 0.491457 -2.44049 -1.68519 0.281268 
-2.41768 -1.65791 0.278265 -2.47374 -1.46156 0.28753 -2.48452 -1.46002 0.289052 
-2.50829 -1.46728 0.292334 -3.78492 -1.9294 0.468038 -3.78484 -1.91466 0.468132 
-3.72307 -1.86579 0.45982 -3.72299 -1.85132 0.459912 -3.81597 -1.88752 0.472691 
-2.4046 -1.65778 0.268361 -2.39373 -1.6403 0.267006 -4.0503 -2.09668 0.489277 
-2.37096 -1.63214 0.256011 -2.38172 -1.63236 0.257431 -2.36871 -1.6321 0.247752 
-2.37946 -1.63232 0.249126 -4.4439 -2.27206 0.508745 -4.48909 -2.27931 0.514476 
-4.27224 -2.14301 0.487695 -4.04138 -2.00101 0.459162 -3.86876 -1.89234 0.437844 
-3.83525 -1.85935 0.43379 -3.90094 -1.87912 0.442055 -3.8685 -1.84685 0.438133 
-3.83499 -1.8143 0.434076 -3.80364 -1.78316 0.430285 -3.74102 -1.73631 0.422605 
-3.74094 -1.7217 0.422698 -3.80339 -1.73852 0.430569 -3.8033 -1.72364 0.430663 
-3.77196 -1.69333 0.426867 -3.74061 -1.66328 0.423069 -3.77179 -1.66384 0.427054 
-3.77171 -1.6491 0.427148 -2.32603 -1.69907 0.234014 -2.35567 -1.62323 0.23822 
-3.79897 -1.64918 0.41678 -3.76766 -1.61955 0.413112 -2.33353 -1.70749 0.227031 
-4.06822 -1.77949 0.434211 -3.96059 -1.71255 0.421796 -2.34208 -1.71685 0.220083 
-3.70016 -1.85092 0.376135 -3.70008 -1.83644 0.376227 -3.73008 -1.83833 0.379682 
-3.95639 -1.69687 0.406835 -2.36028 -1.73466 0.214064 -3.88362 -1.66455 0.384347 
-3.69222 -1.79289 0.348577 -3.78416 -1.79769 0.358411 -3.75299 -1.76669 0.355281 
-3.75291 -1.75195 0.355375 -3.75282 -1.73721 0.355469 -3.75274 -1.72247 0.355562 
-3.69156 -1.67712 0.349313 -3.6336 -1.63391 0.343394 -3.54885 -1.57802 0.334688 
-3.57664 -1.57777 0.337672 -3.6623 -1.60525 0.346673 -3.72116 -1.61913 0.352893 
-3.75215 -1.61927 0.356218 -3.75207 -1.60453 0.356312 -2.37612 -1.74378 0.19958 
-3.77907 -1.58931 0.345379 -3.65435 -1.53339 0.31945 -3.84079 3.04986 0.355239 
-3.83676 3.04993 0.340472 -2.35751 -1.75242 0.165314 -2.36707 -1.75227 0.166142 
-3.53349 2.7936 0.298083 -2.34458 -1.74294 0.156197 -2.35519 -1.74378 0.157065 
-3.61437 2.85613 0.291988 -3.50236 2.7687 0.282182 -3.58212 2.8304 0.275752 
-3.49872 2.76877 0.268827 -3.63526 2.88206 0.266583 -3.49508 2.76883 0.255472 
-2.34845 -1.75226 0.132096 -2.3484 -1.74366 0.132151 -2.35792 -1.74346 0.132814 
-3.57464 2.83053 0.24832 -3.49144 2.76889 0.242117 -3.54253 2.8048 0.232577 
-3.38481 2.67486 0.221402 -3.43176 2.70741 0.211794 -3.28473 2.58658 0.202007 
-3.6202 2.85339 0.210547 -3.45447 2.71763 0.200228 -3.50434 2.75222 0.190026 
-3.37441 2.64829 0.182511 -3.50067 2.75229 0.176553 -3.4211 2.69399 0.172328 
-2.74746 -1.5479 0.101744 -2.76321 -1.54761 0.102438 -3.52416 2.77695 0.164435 
-3.41752 2.69405 0.159202 -3.5729 -1.47648 0.12493 -3.57282 -1.46226 0.125021 
-3.52046 2.77702 0.150842 -3.41394 2.69412 0.146075 -3.62588 -1.50232 0.113048 
-3.56908 -1.46219 0.111305 -3.54064 -1.43528 0.110477 -3.51675 2.77708 0.137249 
-3.38535 2.67136 0.131916 -3.24145 2.55297 0.126058 -3.17266 -1.59442 0.0845558 
-3.17258 -1.58198 0.0846348 -3.59399 -1.53233 0.098018 -3.62224 -1.53119 0.0989008 
-3.65153 -1.53028 0.0998145 -3.40679 2.69424 0.119822 -3.21518 2.53201 0.112825 
-3.06695 2.46867 0.107818 -3.30444 2.60397 0.103475 -3.18999 2.512 0.0998267 
-3.02428 2.43133 0.094885 -3.45164 2.72808 0.0949477 -3.82756 -1.50907 0.061044 
-4.31925 -1.61545 0.0691823 -4.45395 -1.65169 0.071366 -3.42206 2.70448 0.0809745 
-3.03787 2.4262 0.0722816 -3.01809 2.41956 0.0718839 -3.69614 -1.45395 0.0447548 
-3.99615 -1.47019 0.0487249 -4.35823 -1.59735 0.0528245 -3.36769 2.65818 0.066746 
-3.01504 2.40774 0.0603456 -2.97664 2.38338 0.0596674 -3.3626 -1.47139 0.027253 
[...]
POINT_DATA 7129
SCALARS z_coord float
LOOKUP_TABLE default
0.527829 0.985072 0.98518 0.936148 0.435932 0.43598 0.795069 0.795156 0.581176 
0.577524 0.574137 0.577653 0.781828 0.788582 0.795605 0.42723 0.443913 0.429407 
0.571332 0.567743 0.567808 0.564479 0.564543 0.788947 0.789036 0.782309 0.425753 
0.547834 0.554822 0.768746 0.775533 0.410429 0.518425 0.521756 0.524836 0.524898 
0.52194 0.545164 0.748693 0.755361 0.506211 0.509235 0.515471 0.515533 0.522334 
0.729127 0.741887 0.748437 0.748527 0.51223 0.494889 0.498105 0.722071 0.741431 
0.490855 0.490916 0.485748 0.491526 0.503687 0.740642 0.75438 0.761417 0.473205 
0.470698 0.485251 0.479471 0.506535 0.506599 0.740157 0.753873 0.775814 0.458975 
0.461781 0.472598 0.469912 0.469972 0.472781 0.481544 0.487332 0.481668 0.476003 
0.476064 0.476125 0.487646 0.719255 0.732705 0.739575 0.408256 0.416789 0.46877 
0.471747 0.486387 0.483535 0.469017 0.466386 0.47475 0.480648 0.477793 0.472243 
0.480837 0.486964 0.475125 0.475187 0.711897 0.584198 0.75275 0.73835 0.590229 
0.709325 0.556 0.564538 0.564617 0.578024 0.564775 0.552156 0.578267 0.592531 
0.540047 0.544263 0.561312 0.548637 0.561552 0.570537 0.579939 0.528246 0.53237 
0.536495 0.57172 0.576462 0.591132 0.490451 0.494081 0.50127 0.508857 0.5204 
0.524432 0.568501 0.573339 0.578178 0.508196 0.493412 0.493487 0.504568 0.508507 
0.51631 0.555594 0.560322 0.569889 0.591096 0.596422 0.720595 0.337258 0.386422 
0.391169 0.400604 0.550369 0.561459 0.556823 0.552184 0.567082 0.572091 0.683543 
0.330984 0.329218 0.434783 0.541576 0.551034 0.565917 0.56267 0.557782 0.557871 
0.324494 0.322952 0.424188 0.549135 0.549225 0.544458 0.549406 0.549497 0.559308 
0.580106 0.574979 0.339034 0.333535 0.335384 0.342969 0.350907 0.566995 0.622192 
0.63608 0.615774 0.622526 0.615994 0.584711 0.315429 0.315487 0.317299 0.311692 
0.320792 0.322615 0.326362 0.611817 0.562709 0.551836 0.562915 0.574645 0.592999 
0.586809 0.306654 0.306712 0.296473 0.301352 0.317207 0.315397 0.317326 0.324709 
0.451062 0.454901 0.546933 0.547037 0.542509 0.286647 0.289857 0.285016 0.289753 
0.294491 0.296209 0.299439 0.313401 0.491171 0.473783 0.473875 0.491457 0.281268 
0.278265 0.28753 0.289052 0.292334 0.468038 0.468132 0.45982 0.459912 0.472691 
0.268361 0.267006 0.489277 0.256011 0.257431 0.247752 0.249126 0.508745 0.514476 
0.487695 0.459162 0.437844 0.43379 0.442055 0.438133 0.434076 0.430285 0.422605 
0.422698 0.430569 0.430663 0.426867 0.423069 0.427054 0.427148 0.234014 0.23822 
0.41678 0.413112 0.227031 0.434211 0.421796 0.220083 0.376135 0.376227 0.379682 
0.406835 0.214064 0.384347 0.348577 0.358411 0.355281 0.355375 0.355469 0.355562 
0.349313 0.343394 0.334688 0.337672 0.346673 0.352893 0.356218 0.356312 0.19958 
0.345379 0.31945 0.355239 0.340472 0.165314 0.166142 0.298083 0.156197 0.157065 
0.291988 0.282182 0.275752 0.268827 0.266583 0.255472 0.132096 0.132151 0.132814 
0.24832 0.242117 0.232577 0.221402 0.211794 0.202007 0.210547 0.200228 0.190026 
0.182511 0.176553 0.172328 0.101744 0.102438 0.164435 0.159202 0.12493 0.125021 
0.150842 0.146075 0.113048 0.111305 0.110477 0.137249 0.131916 0.126058 0.0845558 
0.0846348 0.098018 0.0989008 0.0998145 0.119822 0.112825 0.107818 0.103475 0.0998267 
0.094885 0.0949477 0.061044 0.0691823 0.071366 0.0809745 0.0722816 0.0718839 0.0447548 
0.0487249 0.0528245 0.066746 0.0603456 0.0596674 0.027253 0.0270385 0.0286665 0.0299171 
0.0347119 0.054493 0.0144742 0.0145159 0.0153115 0.0172413 0.0447371 0.0435271 0.0418141 
0.00139103 0.00160882 0.0019565 0.00217578 0.00168089 0.00186423 0.00208959 0.00170139 0.0306988 
-0.0119189 -0.0111229 -0.010711 -0.0104615 -0.0113084 -0.0113985 -0.0118688 -0.0136543 -0.0118404 
-0.0251596 -0.0242054 -0.0241203 -0.0237517 -0.0239502 -0.0245491 -0.0250569 -0.0258991 -0.0289432 
-0.0280764 -0.0269637 0.000843083 -0.0366334 -0.0365491 -0.0386194 -0.0433826 -0.0412897 -0.0423795 
-0.0427816 -0.0128449 -0.0516411 -0.0500196 -0.0484863 -0.0488645 -0.0526351 -0.0553832 -0.0546966 
-0.0561422 -0.0573401 -0.0642414 -0.0629266 -0.0622282 -0.0609951 -0.0662278 -0.0684224 -0.0683287 
-0.0687688 -0.0686742 -0.070068 -0.0405239 -0.0766433 -0.0751099 -0.0734209 -0.0761288 -0.0767625 
-0.0785669 -0.0784773 -0.0799807 -0.0815102 -0.0822711 -0.0896818 -0.09159 -0.0947165 -0.0957428 
-0.095634 -0.100226 -0.102634 -0.0888258 -0.0871085 -0.086774 -0.09084 -0.0916165 -0.0921596 
-0.0911834 -0.0938202 -0.0965881 -0.0964945 -0.104052 -0.107422 -0.112369 -0.112261 -0.110841 
-0.114696 -0.12029 -0.0704475 -0.0696112 -0.102848 -0.102763 -0.100789 -0.0989361 -0.100368 
-0.104081 -0.113573 -0.113477 -0.115757 -0.119413 -0.126049 -0.0894289 -0.0874558 -0.11266 
-0.116315 -0.117321 -0.129687 -0.130867 -0.130769 -0.130671 -0.136232 -0.105457 -0.10313 
-0.120017 -0.131858 -0.133025 -0.145977 -0.144357 -0.145781 -0.148723 -0.117995 -0.115495 
-0.139434 -0.135739 -0.133321 -0.16433 -0.169551 -0.169448 -0.12493 -0.150904 -0.148225 
-0.146875 -0.155867 -0.179536 -0.187209 -0.189203 -0.138893 -0.158216 -0.158135 -0.159424 
-0.157973 -0.168994 -0.189048 -0.190914 -0.198913 -0.152855 -0.174984 -0.173363 -0.210148 
-0.210048 -0.168433 -0.195938 -0.190708 -0.198896 -0.216466 -0.225254 -0.205585 -0.209151 
-0.205415 -0.200085 -0.22659 -0.238058 -0.220428 -0.220342 -0.212759 -0.238635 -0.253117 
-0.208799 -0.233531 -0.229353 -0.227309 -0.234713 -0.255302 -0.268177 -0.218659 -0.238358 
-0.238275 -0.236125 -0.234067 -0.241561 -0.245776 -0.272233 -0.280396 -0.228106 -0.248776 
-0.246616 -0.240492 -0.242394 -0.252192 -0.261052 -0.298396 -0.295309 -0.248481 -0.24158 
-0.250902 -0.250823 -0.254905 -0.261263 -0.254745 -0.25835 -0.267155 -0.271809 -0.313456 
-0.310223 -0.178644 -0.178591 -0.179594 -0.181547 -0.182549 -0.253116 -0.256986 -0.261061 
-0.260982 -0.260904 -0.268462 -0.284912 -0.284826 -0.325235 -0.325136 -0.281438 -0.191018 
-0.190963 -0.190908 -0.191845 -0.268786 -0.270877 -0.270799 -0.270722 -0.27281 -0.274107 
-0.278562 -0.292834 -0.340148 -0.34005 -0.202541 -0.201338 -0.20243 -0.203636 -0.204727 
-0.264335 -0.266186 -0.270185 -0.272146 -0.278516 -0.282848 -0.295834 -0.295753 -0.295671 
-0.348138 -0.348041 -0.31262 -0.212124 -0.21326 -0.214396 -0.277389 -0.277315 -0.281479 
-0.283522 -0.290152 -0.294662 -0.315988 -0.32703 -0.369975 -0.323711 -0.221849 -0.223031 
-0.224336 -0.278828 -0.284598 -0.284526 -0.284453 -0.284381 -0.284309 -0.337322 -0.392421 
-0.334649 -0.228987 -0.228931 -0.228875 -0.285987 -0.285917 -0.285847 -0.287815 -0.291945 
-0.291873 -0.291802 -0.407627 -0.358877 -0.239367 -0.227263 -0.234683 -0.237418 -0.237362 
-0.298693 -0.298623 -0.298552 -0.300592 -0.302763 -0.304801 -0.302621 -0.360725 -0.422933 
-0.414519 -0.414421 -0.410168 -0.369701 -0.24585 -0.248541 -0.249996 -0.285236 -0.430907 
-0.430808 -0.435026 -0.416832 -0.420903 -0.433438 -0.49997 -0.482466 -0.476815 -0.466018 
-0.460759 -0.376721 -0.232656 -0.255701 -0.257064 -0.258568 -0.432847 -0.424663 -0.420526 
-0.439703 -0.452944 -0.482674 -0.482563 -0.477125 -0.46663 -0.461465 -0.390684 -0.250373 
-0.238689 -0.259691 -0.262713 -0.265586 -0.435267 -0.439355 -0.447622 -0.456318 -0.443253 
-0.422719 -0.434431 -0.45132 -0.487813 -0.482686 -0.482583 -0.477603 -0.472625 -0.505203 
-0.50509 -0.504978 -0.49922 -0.488232 -0.400988 -0.267768 -0.274165 -0.275769 -0.277373 
-0.449358 -0.453579 -0.466721 -0.475844 -0.475745 -0.444456 -0.448522 -0.461347 -0.493427 
-0.48829 -0.483156 -0.483056 -0.482956 -0.499094 -0.486462 -0.481118 -0.481014 -0.491241 
-0.491134 -0.491028 -0.426595 -0.27792 -0.282687 -0.284342 -0.472532 -0.472438 -0.486145 
-0.471397 -0.47574 -0.484977 -0.503449 -0.493281 -0.535454 -0.586082 -0.513281 -0.507619 
-0.507513 -0.507406 -0.5073 -0.501936 -0.406015 -0.292048 -0.263196 -0.291266 -0.292971 
-0.4824 -0.486888 -0.496271 -0.495114 -0.504787 -0.504688 -0.50459 -0.504492 -0.513468 
-0.540284 -0.528877 -0.563926 -0.523253 -0.517727 -0.512052 -0.511948 -0.51741 -0.517305 
-0.511635 -0.511531 -0.430747 -0.280075 -0.271825 -0.298198 -0.303412 -0.537006 -0.526178 
-0.524988 -0.535589 -0.535488 -0.529876 -0.529776 -0.528674 -0.580842 -0.574432 -0.561888 
-0.53299 -0.53846 -0.538354 -0.532674 -0.288955 -0.280454 -0.306731 -0.310229 -0.56208 
-0.550647 -0.544882 -0.539452 -0.604406 -0.611107 -0.597538 -0.419908 -0.29246 -0.287345 
-0.320713 -0.322394 -0.596243 -0.577649 -0.565907 -0.559988 -0.628286 -0.399224 -0.329393 
-0.331119 -0.413869 -0.338072 -0.339844 -0.596327 -0.596225 -0.596124 -0.634352 -0.655487 
-0.670315 -0.549761 -0.549665 -0.425419 -0.422074 -0.40652 -0.350574 -0.644208 -0.630303 
-0.643676 -0.672366 -0.703631 -0.55874 -0.553448 -0.730974 -0.722217 -0.547132 -0.547041 
-0.368124 -0.731569 -0.714966 -0.739873 -0.47487 -0.471075 -0.733157 -0.741394 -0.724782 
-0.686509 -0.693558 -0.486777 -0.48289 -0.387938 -0.710682 -0.726248 -0.726139 -0.72603 
-0.725922 -0.741883 -0.733636 -0.494782 -0.479691 -0.468892 -0.468819 -0.39445 -0.750992 
-0.742766 -0.726635 -0.726528 -0.750552 -0.74233 -0.696679 -0.662477 -0.476512 -0.400862 
-0.759719 -0.487642 -0.383857 -0.385985 -0.407658 -0.387794 -0.385519 -0.385466 -0.385412 
-0.383361 -0.413452 -0.393699 -0.389339 -0.389286 -0.391499 -0.391446 -0.424002 -0.395087 
-0.395034 -0.427482 -0.427429 -0.430842 -0.435568 -0.433 -0.438946 -0.438893 -0.448572 
-0.44929 -0.454191 -0.454137 -0.459983 -0.467357 -0.44033 -0.437735 -0.445828 -0.443446 
-0.441065 -0.471044 -0.470992 -0.453867 -0.451444 -0.451392 -0.459659 -0.466866 -0.476584 
-0.461801 -0.461748 -0.461695 -0.459232 -0.459179 -0.484646 -0.48204 -0.472059 -0.474561 
-0.464937 -0.469787 -0.472458 -0.46723 -0.464727 -0.49006 -0.485107 -0.47756 -0.480596 
-0.483035 -0.480383 -0.482821 -0.492997 -0.487673 -0.487622 -0.524851 -0.514061 -0.574387 
-0.584724 0.426646 0.410765 -0.591308 -0.584718 0.404454 0.395208 0.298872 -0.570444 
-0.584097 0.395263 0.382726 0.370188 0.352048 0.334441 0.324858 0.312635 0.295848 
-0.584955 -0.594719 0.395389 0.379572 0.37303 0.357441 0.347516 0.332143 0.314376 
0.295033 0.1394 -0.58562 -0.591462 -0.592785 0.316311 0.303662 0.288656 0.271888 
0.135364 -0.59528 -0.596648 0.315583 0.302826 0.285502 0.270834 0.13138 -0.590598 
0.27589 0.265687 0.249527 0.237408 0.128331 -0.583193 -0.589051 0.246478 0.229295 
0.145533 0.134681 -0.579973 -0.589935 -0.591524 0.24343 0.227934 0.143533 0.132562 
-0.576649 -0.578278 0.242219 0.229996 0.140558 0.130434 -0.569142 -0.570874 -0.584985 
0.246621 0.137582 0.12741 -0.577529 -0.595962 0.24731 0.134607 0.124386 -0.5621 
0.269818 0.256944 0.134277 0.123818 0.268683 0.251638 0.130359 0.119109 0.265416 
0.250468 0.125682 0.114568 1.00896 1.00401 0.988535 0.993645 0.262149 0.24522 
0.127697 0.256864 0.242011 0.128131 -0.153217 -0.168744 -0.184594 -0.205253 -0.227112 
-0.247527 -0.715288 -0.72164 0.249645 0.236996 0.144283 -0.110395 -0.12497 -0.13984 
-0.15496 -0.168552 -0.272701 -0.29497 -0.725395 -0.711873 0.244501 0.230184 0.142192 
-0.113721 -0.128327 -0.143228 -0.158379 -0.175713 -0.267282 -0.29542 -0.71513 -0.609864 
0.25593 -0.10152 -0.117047 -0.131684 -0.323191 -0.354445 -0.366167 -0.381978 -0.397789 
-0.698823 -0.725726 -0.705477 -0.598683 0.752425 0.776986 0.25073 -0.104787 -0.120373 
-0.13504 -0.327481 -0.34981 -0.385955 -0.401766 -0.708779 -0.722122 -0.677548 -0.609216 
-0.58789 0.245663 -0.0775093 -0.0919669 -0.383576 -0.41669 -0.447562 -0.698815 -0.646633 
0.231885 0.219348 -0.0797592 -0.397929 -0.412771 -0.437065 -0.695579 -0.70211 -0.671424 
-0.644138 0.65367 0.230552 0.216194 0.128432 -0.0819572 -0.406118 -0.425725 -0.445774 
-0.679811 -0.662198 -0.640804 -0.616231 0.679503 0.671404 0.254608 0.240019 0.126175 
-0.0859609 -0.0993196 -0.487395 -0.658656 -0.642633 0.253465 0.236837 0.121288 -0.094115 
-0.644654 -0.634974 0.24819 0.233655 0.117385 0.106433 -0.675989 -0.664449 -0.647703 
-0.632573 0.246988 0.232224 0.123267 -0.679285 -0.667631 0.241772 0.229014 0.119509 
-0.689092 -0.664655 0.238562 0.224109 0.115799 0.106686 -0.659674 -0.672775 -0.673495 
-0.656151 0.281109 0.113559 0.103637 -0.66386 -0.670396 -0.659251 0.255006 0.111989 
0.099969 -0.635334 -0.648091 -0.667098 0.112584 -0.638543 -0.657463 0.126339 0.113238 
-0.647829 -0.660702 0.123043 0.109942 -0.649029 -0.643961 -0.656946 -0.66394 0.651515 
0.643571 0.660133 0.639256 0.618849 0.610167 0.595623 0.10522 -0.628559 -0.635414 
0.642217 0.65218 0.656437 0.641746 0.621052 0.600824 0.117295 0.104073 -0.614663 
-0.6272 0.652487 0.638765 0.580597 0.571952 0.563032 0.114782 0.101439 -0.610907 
-0.617817 -0.624727 0.707809 0.714082 0.566704 0.557956 0.54911 0.113047 0.0987685 
-0.614089 -0.620971 -0.627854 0.545592 0.562668 0.542514 -0.606122 0.55351 -0.614741 
0.520162 -0.612375 -0.614001 0.511822 0.493085 0.483577 -0.60685 -0.608512 0.489567 
0.480025 -0.599128 -0.606199 0.490595 0.476472 0.46235 0.399851 0.380452 0.376148 
0.36387 -0.5794 -0.602282 -0.609326 0.450459 0.452998 0.438596 0.428135 0.41359 
0.422983 0.420076 0.340162 0.324179 0.308196 -0.587594 0.446975 0.43706 0.427 
0.416665 0.409931 0.41909 0.407621 0.332785 0.316974 0.301164 -0.590721 0.312997 
0.297187 -0.56405 -0.576376 -0.588703 0.30902 0.293209 -0.562187 -0.584545 -0.596974 
0.305042 0.289232 -0.570252 -0.582578 0.301065 0.282417 -0.5487 -0.565939 -0.583594 
-0.590798 0.291303 0.273173 -0.54213 -0.57421 -0.586748 -0.58878 0.28741 0.2643 
-0.545179 -0.572193 0.286253 0.262965 -0.552852 -0.540892 -0.56289 -0.580518 0.276929 
0.252026 -0.556062 -0.558597 -0.571135 -0.578446 0.329352 0.302994 0.273077 0.246102 
-0.546514 -0.559271 -0.56699 0.298929 0.277201 0.258812 -0.575237 0.278705 0.259947 
0.246386 0.227981 -0.560705 0.244813 0.228469 0.210002 0.240701 0.224357 0.208012 
-0.586172 0.222459 0.2039 -0.581812 0.222788 0.2038 -0.5852 0.218533 0.199594 
-0.598143 -0.594277 0.216498 0.195388 0.195082 -0.604371 -0.603354 -0.620074 -0.641115 
-0.591523 -0.587842 -0.595527 -0.608749 -0.616072 -0.6066 -0.608065 -0.609762 -0.611274 
-0.610184 -0.607751 -0.604164 -0.600614 -0.607445 -0.614298 -0.604812 -0.60607 -0.588102 
-0.598417 -0.604236 -0.605606 -0.611335 -0.613162 -0.602454 -0.599662 -0.604839 -0.605857 
-0.586328 -0.592389 -0.598047 -0.60662 -0.607899 -0.613226 -0.610264 -0.592299 -0.601805 
-0.60324 -0.604433 -0.62105 -0.617855 -0.692957 -0.680299 -0.680848 -0.665954 -0.659438 
-0.646412 -0.64763 -0.684554 -0.685007 -0.65517 -0.635417 -0.630321 -0.644581 -0.627542 
-0.676128 -0.676689 -0.663373 -0.651816 -0.623706 -0.630328 -0.647439 -0.648761 -0.651744 
-0.652967 -0.661815 -0.662588 -0.678748 -0.640453 -0.634334 -0.650494 -0.659098 -0.67508 
-0.655703 -0.656718 -0.65066 -0.658518 -0.652694 -0.653647 -0.674784 -0.667861 -0.640583 
-0.648495 -0.649596 -0.644096 -0.64663 -0.635036 -0.636252 -0.6435 -0.63874 -0.633961 
-0.598144 -0.607203 -0.599399 -0.60538 -0.602303 -0.57739 -0.578784 -0.576844 -0.574938 
-0.576301 -0.581073 -0.592374 -0.59267 -0.589927 -0.591453 -0.593169 -0.598979 -0.600428 
-0.572491 -0.570659 -0.575463 -0.576983 -0.578322 -0.586359 -0.594396 -0.615729 -0.616973 
-0.578685 -0.576796 -0.601082 -0.598488 -0.609806 -0.611057 -0.577281 -0.571657 -0.573331 
-0.574817 -0.603093 -0.603891 -0.573783 -0.575434 -0.576896 -0.597976 -0.602443 -0.577537 
-0.578975 -0.57964 -0.577581 0.201424 0.986476 0.958357 0.952642 0.946809 0.945992 
0.940138 0.955034 0.94962 0.943807 0.95883 0.962626 1.20066 0.977465 1.17564 
-0.591932 0.329415 0.302671 0.332855 -0.564073 0.329889 0.315037 -0.555649 0.327136 
0.30692 -0.571993 -0.557958 0.288094 0.274232 0.291239 0.274963 0.459197 0.443374 
-0.553788 0.283532 0.264501 -0.543168 -0.541174 0.294692 0.277468 0.258226 -0.535544 
-0.533516 0.295328 0.283326 0.266213 -0.542343 -0.540412 0.289325 0.269516 0.243942 
0.220707 -0.534554 -0.537589 0.260949 0.240917 0.220173 -0.52372 -0.535652 0.223121 
0.211771 0.200247 -0.530167 -0.537523 -0.549552 -0.556808 0.360046 0.214746 0.203249 
0.187079 0.175409 -0.541563 -0.549054 -0.56139 -0.563811 0.221308 0.207953 0.19302 
0.179788 -0.563626 -0.565788 -0.568153 -0.560909 0.196022 0.184272 0.172275 -0.570822 
-0.583479 -0.580466 0.17672 0.164424 0.149515 -0.580607 -0.577667 -0.569843 -0.562508 
0.35223 0.182782 0.168919 0.153809 -0.571995 -0.559887 0.355405 0.338414 0.336468 
0.269102 0.250904 0.241377 0.229453 0.173474 0.156924 -0.574312 -0.557267 0.355422 
0.338533 0.333577 0.256151 0.244522 0.232628 0.176649 -0.566198 -0.582636 0.333765 
0.289254 0.280259 0.263792 0.181342 0.16583 0.15308 -0.568348 -0.584859 0.339989 
0.156286 0.141015 0.128023 0.114786 0.0983241 -0.570456 -0.582196 0.160839 0.146567 
0.132295 0.119902 0.104537 -0.572521 -0.579532 -0.565129 -0.576869 -0.475266 -0.495185 
-0.567152 -0.574205 -0.471931 -0.486633 -0.559802 -0.562025 0.0312116 -0.458744 -0.468595 
-0.483297 -0.503298 -0.51815 -0.538758 -0.557139 -0.559404 1.05686 0.0337459 -0.0731841 
-0.332939 -0.413936 -0.419934 -0.425672 -0.440523 -0.450557 -0.526073 -0.524069 -0.545231 
-0.561499 0.986303 -0.174549 -0.1951 -0.216846 -0.234542 -0.246856 -0.261861 -0.273788 
-0.288639 -0.300199 -0.318342 -0.333193 -0.396906 -0.403115 -0.417817 -0.437154 -0.447222 
-0.489611 -0.484166 -0.54261 -0.558857 0.959484 0.0525465 0.0395734 -0.0137033 -0.0270585 
-0.0404137 -0.053769 -0.067969 -0.109621 -0.13834 -0.15207 -0.320116 -0.348184 -0.366486 
-0.410158 -0.415909 -0.463228 -0.467589 -0.467343 -0.479999 -0.549149 -0.570448 0.95481 
0.145145 0.133229 0.106499 0.0936166 -0.035204 -0.0624889 -0.0765091 -0.0897407 -0.10416 
-0.13087 -0.144226 -0.32745 -0.34118 -0.358558 -0.398399 -0.408365 -0.455857 -0.451816 
-0.468751 -0.477128 -0.548545 0.957312 0.953413 0.232647 0.229174 0.216837 0.206059 
0.195067 0.183862 0.172494 0.159727 0.122303 0.948786 0.231984 0.226802 0.214772 
0.205717 0.194963 0.182627 0.171553 0.161422 0.123453 -0.55506 -0.557559 0.951288 
0.289622 0.278594 0.269448 0.258335 0.248933 0.239361 0.123743 0.111407 -0.542424 
-0.55476 0.290052 0.281096 0.270068 0.259041 0.249743 0.245377 0.127427 -0.469838 
-0.490955 -0.508233 -0.521 -0.528924 -0.536816 -0.539625 -0.542406 0.942239 0.292535 
0.283598 -0.308745 -0.319198 -0.326132 -0.336085 -0.34592 -0.453733 -0.503023 -0.547777 
-0.549163 0.92298 0.2677 -0.154394 -0.200002 -0.230509 -0.246243 -0.259599 -0.278454 
-0.436059 -0.551293 0.270129 -0.0687277 -0.0819593 -0.109661 -0.123016 -0.137857 -0.151336 
-0.164815 -0.176437 0.299982 0.28904 0.274338 0.265356 0.138455 0.132242 0.122077 
0.110145 0.0982138 0.0862824 0.0747636 0.0633767 0.0516174 0.0393033 0.0267537 0.304633 
0.293605 0.278682 0.262464 0.256959 0.151219 0.250235 0.2377 0.22835 0.220419 
0.209306 0.199528 0.179519 0.169279 0.157817 -0.575658 -0.572835 -0.557221 -0.538777 
-0.539428 -0.568437 -0.54037 -0.542752 -0.579109 -0.540426 -0.53108 -0.534096 -0.539962 
-0.549352 -0.558743 -0.553347 -0.551579 -0.566065 -0.542075 -0.532642 -0.523712 -0.5262 
-0.535714 -0.537831 -0.554743 -0.564258 -0.554753 -0.546003 -0.578489 -0.577859 -0.563873 
-0.551027 -0.549326 -0.547853 -0.550881 -0.552565 -0.548855 -0.550564 -0.579103 -0.581532 
-0.553915 -0.562956 -0.571998 -0.593501 -0.595626 -0.555394 -0.560905 -0.569947 -0.602529 
-0.604427 -0.562427 -0.57906 -0.611797 -0.613671 -0.553242 -0.562228 -0.578557 -0.5802 
-0.602225 -0.616783 -0.565669 -0.563793 -0.569175 -0.598923 -0.607132 -0.567137 -0.583526 
-0.59562 -0.603862 -0.565098 -0.570395 -0.568379 -0.570132 -0.598455 -0.606875 -0.570302 
-0.575722 -0.569835 -0.568166 -0.576985 -0.591257 -0.5644 -0.580428 -0.567489 -0.586517 
-0.56954 -0.578415 -0.553635 -0.566866 -0.560422 -0.565729 -0.589082 0.410658 -0.553445 
-0.57947 -0.595986 -0.59711 -0.545408 -0.553086 -0.550882 -0.567002 -0.590124 -0.599 
0.381584 0.380554 0.365068 0.356658 -0.54041 -0.543158 -0.585948 1.91882 0.782465 
0.773912 0.34216 0.336364 -0.530997 -0.524791 -0.58397 1.94486 0.862917 0.843348 
0.828912 0.819815 0.815879 0.81296 0.818977 0.342189 0.330004 0.317956 -0.523586 
-0.574879 1.92641 1.63842 1.69197 1.43572 0.342321 0.326001 -0.520857 -0.581539 
-0.590154 1.85042 1.75743 0.340244 0.326255 -0.534871 -0.547003 -0.579585 -0.591836 