# vtk DataFile Version 4.2
vtk output
ASCII
DATASET POLYDATA
POINTS 6175 float
-2.60174 0.172475 0.550396 -2.57491 0.160971 0.535399 -2.61262 0.173797 0.544664 
-4.76997 -2.76757 1.02957 -4.80715 -0.308548 1.0575 -2.5847 0.162134 0.529446 
-2.61016 0.173841 0.535628 -2.77314 0.794373 0.579421 -4.48296 -2.86618 0.944538 
-4.81628 -2.79962 1.02351 -2.59445 0.163298 0.523393 -2.61988 0.175057 0.529471 
-4.56846 -2.92883 0.948209 -4.76024 -2.76739 0.993851 -2.592 0.163341 0.514412 
-2.63069 0.17638 0.523469 -4.80643 -2.79945 0.987368 -3.70724 -0.114204 0.757741 
-3.6784 -0.0995622 0.751287 -2.60282 0.164607 0.508461 -2.6282 0.176424 0.514328 
-4.60423 -2.69288 0.925967 -3.9203 -0.149268 0.792384 -3.82407 -0.131577 0.770986 
-2.60036 0.164651 0.499425 -2.62571 0.176469 0.505187 -4.59953 -2.6928 0.908708 
-2.61003 0.165816 0.493066 -2.62321 0.176513 0.496046 -2.6465 0.74476 0.5055 
-4.69108 -2.75391 0.911774 -2.60755 0.16586 0.48398 -2.62072 0.176557 0.486905 
-2.64397 0.744805 0.496249 -4.7361 -2.80399 0.904307 -4.68627 -2.75382 0.894119 
-2.59297 0.164782 0.472317 -2.61823 0.176602 0.477764 -2.68322 0.759525 0.495967 
-2.59051 0.164826 0.463282 -2.61574 0.176646 0.468623 -2.55064 0.603161 0.458297 
-2.68065 0.759571 0.486543 -1.56969 0.958487 0.256789 -1.56638 0.960626 0.256116 
-2.60012 0.165992 0.456721 -2.60007 0.17541 0.456781 -2.53505 0.599251 0.446698 
-2.65067 0.749961 0.471447 -1.57603 0.965127 0.25359 -1.55851 0.954949 0.249934 
-2.61081 0.167261 0.450281 -2.61076 0.176735 0.450341 -2.5458 0.603247 0.440536 
-2.5326 0.608441 0.437931 -2.63389 0.744985 0.459247 -2.60832 0.167305 0.44114 
-2.60827 0.176779 0.4412 -2.56745 0.610538 0.436437 -2.64559 0.750051 0.452826 
-1.56576 0.958557 0.242351 -2.63198 0.188975 0.437193 -2.67109 0.632771 0.448034 
-2.59014 0.618159 0.43235 -2.58956 0.72175 0.433012 -2.67037 0.759754 0.448845 
-1.57207 0.965198 0.239055 -2.62946 0.18902 0.427942 -2.64114 0.190515 0.421321 
-1.55204 0.950119 0.226045 -2.6386 0.19056 0.412011 -2.63606 0.190606 0.402701 
-2.64658 0.191991 0.395653 -1.51674 0.917964 0.206077 -2.65816 0.193488 0.38868 
-2.65559 0.193534 0.379256 -2.65302 0.193579 0.369831 -2.65045 0.193625 0.360407 
-2.64788 0.193671 0.350982 -2.67238 0.186625 0.345523 -2.65828 0.195058 0.343491 
-2.66978 0.186671 0.335984 -2.66973 0.196558 0.336047 -2.57277 0.726861 0.325877 
-2.69629 0.189609 0.330548 -2.69624 0.199623 0.330612 -2.5832 0.731487 0.318581 
-2.72166 0.192441 0.324718 -2.7216 0.202579 0.324783 -2.56779 0.726949 0.307595 
-2.62043 0.755368 0.314965 -2.70507 0.18102 0.313016 -2.57819 0.731576 0.300189 
-2.61788 0.755413 0.3056 -2.70242 0.181067 0.303295 -2.58856 0.736204 0.292673 
-2.69977 0.181114 0.293573 -2.61283 0.745797 0.286808 -2.65095 0.760357 0.282415 
-2.53133 0.615367 0.258328 -2.67721 0.770717 0.276286 -2.51604 0.611452 0.247835 
-2.68846 0.77573 0.268206 -2.50186 0.607867 0.23757 -2.71461 0.786092 0.261647 
-4.54466 -0.683671 0.43062 -4.27851 -0.624856 0.403574 -4.08075 -0.57851 0.383497 
-2.49943 0.60791 0.228639 -2.75668 0.802186 0.25653 -1.46452 0.877044 0.123756 
-1.45175 0.870536 0.122393 -2.48528 0.604324 0.218524 -2.70925 0.786188 0.241958 
-1.46539 0.8836 0.119502 -2.64917 0.765602 0.226528 -2.44428 0.602233 0.197471 
-2.61895 0.755714 0.21436 -2.64393 0.765695 0.207332 -2.68368 0.781029 0.201322 
-2.66727 0.776107 0.190434 -2.63682 0.636512 0.177712 -2.67835 0.781123 0.181761 
-2.60675 0.628222 0.166148 -2.69046 0.786522 0.173044 -2.59151 0.624419 0.155816 
-2.68778 0.78657 0.163199 -2.54892 0.612279 0.143866 -2.53623 0.617962 0.143129 
-2.6851 0.786618 0.153354 -4.46094 -3.4433 0.216138 -2.58874 0.20449 0.134284 
-2.575 0.212675 0.133558 -2.65402 0.776343 0.141827 -4.45638 -3.4794 0.198452 
-4.50251 -3.44586 0.201099 -2.5988 0.20594 0.125532 -2.57245 0.21272 0.124193 
-2.65137 0.77639 0.132106 -2.59633 0.186337 0.115927 -2.58366 0.194813 0.115373 
-2.59622 0.205986 0.116053 -2.59616 0.215811 0.116116 -2.66236 0.781408 0.123075 
-2.59374 0.186382 0.106448 -2.60733 0.197668 0.10712 -2.65969 0.781455 0.113294 
-2.59116 0.186428 0.0969689 -2.60473 0.197714 0.0975813 -2.60219 0.187874 0.0879796 
-2.58852 0.196299 0.0875525 -2.61318 0.18932 0.0788715 -2.58594 0.196345 0.0780733 
-2.62519 0.190874 0.069673 -2.59693 0.197853 0.0689655 -2.59444 0.178126 0.0593006 
-2.5783 0.176834 0.0495101 -1.48361 0.901817 0.0345668 -2.57571 0.176879 0.0400309 
-2.56065 0.175689 0.030429 -1.49761 0.916472 0.0254163 -2.57054 0.176971 0.0210725 
-2.55552 0.17578 0.0115802 -2.55295 0.175826 0.0021558 -1.55667 0.961776 0.0111379 
-2.55038 0.175872 -0.00726859 -1.68577 0.953209 0.00493514 -2.64293 0.175204 -0.0179193 
-2.57364 0.178496 -0.0170086 -2.56015 0.18698 -0.0167817 -2.57353 0.198269 -0.0168823 
-2.58446 0.179884 -0.0267707 -2.57099 0.188429 -0.026484 -2.57093 0.198315 -0.0264209 
-2.54381 0.429929 -0.024495 -2.54375 0.439697 -0.0244326 -2.55602 0.46212 -0.0245037 
-2.55596 0.471945 -0.0244409 -2.58179 0.189879 -0.0363052 -2.58173 0.199826 -0.0362416 
-2.58168 0.209774 -0.0361781 -2.56822 0.218134 -0.0358332 -2.58095 0.339098 -0.035352 
-2.5675 0.346657 -0.0350122 -2.55404 0.354093 -0.0346732 -2.56738 0.36643 -0.0348859 
-2.56733 0.376316 -0.0348228 -2.55388 0.383568 -0.034485 -2.54146 0.390903 -0.034169 
-2.52801 0.397913 -0.0338328 -2.55371 0.413042 -0.0342967 -2.54129 0.420207 -0.0339818 
-2.54124 0.429975 -0.0339194 -2.55355 0.442516 -0.0341084 -2.55349 0.452341 -0.0340456 
-2.55343 0.462166 -0.0339829 -2.55338 0.471991 -0.0339201 -2.56671 0.485066 -0.0341281 
-2.57917 0.189925 -0.0459032 -2.57912 0.199873 -0.0458397 -2.57906 0.209821 -0.0457761 
-2.56562 0.218181 -0.0453718 -2.57833 0.339144 -0.04495 -2.5649 0.346703 -0.0445508 
-2.55146 0.354139 -0.0441524 -2.56478 0.366476 -0.0444245 -2.55135 0.373789 -0.0440269 
-2.53895 0.381181 -0.0436557 -2.55124 0.393438 -0.0439014 -2.55118 0.403263 -0.0438386 
-2.53878 0.410485 -0.0434685 -2.53873 0.420253 -0.0434062 -2.55102 0.432737 -0.0436503 
-2.55096 0.442562 -0.0435876 -2.56428 0.455453 -0.0438562 -2.56423 0.46534 -0.043793 
-2.5508 0.472036 -0.0433993 -2.56411 0.485112 -0.0436667 -2.59084 0.211512 -0.0558055 
-2.57639 0.219815 -0.0553106 -2.57633 0.229763 -0.0552471 -2.57628 0.239711 -0.0551835 
-2.57622 0.249659 -0.05512 -2.57616 0.259607 -0.0550565 -2.56274 0.267659 -0.0545947 
-2.57605 0.279503 -0.0549294 -2.59039 0.291626 -0.0552938 -2.57594 0.299399 -0.0548023 
-2.57588 0.309347 -0.0547387 -2.57583 0.319295 -0.0546752 -2.57577 0.329243 -0.0546116 
-2.56151 0.485159 -0.0532053 -2.71717 0.799313 -0.0560279 -2.55891 0.485205 -0.062744 
-2.74617 0.810935 -0.067312 -2.55631 0.485251 -0.0722826 -2.7751 0.822558 -0.0788796 
-1.51403 0.928864 -0.0282149 -2.56702 0.488549 -0.0823891 -2.69519 0.667698 -0.0869494 
-2.83873 0.846875 -0.0921886 -1.53411 0.94777 -0.0339538 -2.55111 0.485344 -0.0913599 
-2.69241 0.667747 -0.0971234 -2.81841 0.840581 -0.1022 -1.70058 0.96405 -0.0470294 
-1.54299 0.946317 -0.0394664 -2.56174 0.498591 -0.101522 -2.57598 0.512174 -0.102197 
-2.83283 0.84698 -0.113825 -1.69905 0.958114 -0.0528218 -1.69901 0.964078 -0.0527837 
-2.53265 0.482183 -0.109691 -2.55912 0.498637 -0.11112 -2.5866 0.515597 -0.112604 
-2.58655 0.525673 -0.11254 -2.55895 0.528481 -0.110929 -2.53238 0.531307 -0.109377 
-2.52008 0.537788 -0.108628 -2.81262 0.829553 -0.123753 -2.81255 0.840685 -0.123682 
-1.70155 0.961303 -0.0587918 -1.69236 0.960131 -0.0582684 -1.5087 0.923872 -0.0478823 
-1.50113 0.998482 -0.0469928 -2.53007 0.482229 -0.11917 -2.5565 0.498684 -0.120718 
-2.58395 0.515644 -0.122325 -2.5839 0.52572 -0.122261 -2.55633 0.528527 -0.120527 
-2.55628 0.538475 -0.120464 -2.80963 0.840737 -0.134422 -1.68582 0.938434 -0.0638208 
-1.68579 0.94435 -0.063783 -1.48605 0.905111 -0.0515763 -1.50691 1.0053 -0.052271 
-2.84478 0.0516263 -0.152452 -2.5276 0.462625 -0.128775 -2.54077 0.475642 -0.129578 
-2.55394 0.488782 -0.130379 -2.56791 0.542357 -0.130991 -2.54038 0.544847 -0.129136 
-2.5271 0.551048 -0.12821 -2.79043 0.834814 -0.144111 -1.68426 0.938461 -0.0695294 
-1.6751 0.937308 -0.0689235 -1.47865 0.899767 -0.0560145 -1.50861 1.00823 -0.0573655 
-2.87749 0.0415243 -0.165953 -2.85911 0.0523103 -0.164576 -2.87736 0.064433 -0.165807 
-2.52501 0.462671 -0.138254 -2.52496 0.472496 -0.138191 -2.55133 0.488829 -0.139977 
-2.57848 0.545966 -0.141575 -2.55099 0.548516 -0.139596 -2.53772 0.554779 -0.138611 
-2.77127 0.828891 -0.153654 -1.68271 0.938489 -0.0752379 -1.67355 0.937335 -0.074591 
-1.47431 0.897107 -0.0605989 -1.48036 0.907448 -0.060969 -1.50423 1.00535 -0.0620885 
-2.89175 0.042129 -0.178315 -2.87441 0.0530322 -0.176931 -2.87435 0.0644866 -0.176858 
-2.85599 0.0751017 -0.1754 -2.49749 0.379045 -0.146336 -2.49744 0.388752 -0.146274 
-2.49738 0.398458 -0.146212 -2.49733 0.408164 -0.14615 -2.48509 0.415208 -0.145178 
-2.49722 0.427577 -0.146026 -2.52254 0.443068 -0.147859 -2.53568 0.455962 -0.148781 
-2.54882 0.468979 -0.149702 -2.56298 0.482366 -0.150699 -2.53518 0.544939 -0.148213 
-2.52193 0.55114 -0.147169 -1.47604 0.899814 -0.0655852 -1.47905 0.907471 -0.0657681 
-1.49177 0.994696 -0.0662154 -2.9434 0.0675159 -0.193701 -2.90679 0.0776272 -0.19069 
-2.80213 0.0950869 -0.182149 -2.76959 0.104272 -0.179472 -2.70559 0.11112 -0.174272 
-2.66087 0.118707 -0.170623 -2.57557 0.122875 -0.163721 -2.54812 0.130796 -0.161461 
-2.53487 0.139645 -0.160341 -2.50944 0.147299 -0.158246 -2.52157 0.158195 -0.159158 
-2.54789 0.170588 -0.161207 -2.50928 0.176603 -0.158058 -2.52118 0.226969 -0.158719 
-2.52112 0.236794 -0.158656 -2.52107 0.246618 -0.158593 -2.52101 0.256443 -0.158531 
-2.50878 0.264514 -0.157497 -2.50873 0.274282 -0.157435 -2.50867 0.28405 -0.157372 
-2.49543 0.291734 -0.156259 -2.50856 0.303586 -0.157247 -2.50851 0.313354 -0.157185 
-2.50845 0.323122 -0.157123 -2.49521 0.330559 -0.156011 -2.49516 0.340265 -0.155949 
-2.53364 0.357145 -0.158951 -2.58733 0.377286 -0.16316 -2.58728 0.387424 -0.163095 
-2.54576 0.548609 -0.158792 -2.5457 0.558557 -0.158729 -2.74929 0.823017 -0.173571 
[...]
POINT_DATA 6175
SCALARS z_coord float
LOOKUP_TABLE default
0.550396 0.535399 0.544664 1.02957 1.0575 0.529446 0.535628 0.579421 0.944538 
1.02351 0.523393 0.529471 0.948209 0.993851 0.514412 0.523469 0.987368 0.757741 
0.751287 0.508461 0.514328 0.925967 0.792384 0.770986 0.499425 0.505187 0.908708 
0.493066 0.496046 0.5055 0.911774 0.48398 0.486905 0.496249 0.904307 0.894119 
0.472317 0.477764 0.495967 0.463282 0.468623 0.458297 0.486543 0.256789 0.256116 
0.456721 0.456781 0.446698 0.471447 0.25359 0.249934 0.450281 0.450341 0.440536 
0.437931 0.459247 0.44114 0.4412 0.436437 0.452826 0.242351 0.437193 0.448034 
0.43235 0.433012 0.448845 0.239055 0.427942 0.421321 0.226045 0.412011 0.402701 
0.395653 0.206077 0.38868 0.379256 0.369831 0.360407 0.350982 0.345523 0.343491 
0.335984 0.336047 0.325877 0.330548 0.330612 0.318581 0.324718 0.324783 0.307595 
0.314965 0.313016 0.300189 0.3056 0.303295 0.292673 0.293573 0.286808 0.282415 
0.258328 0.276286 0.247835 0.268206 0.23757 0.261647 0.43062 0.403574 0.383497 
0.228639 0.25653 0.123756 0.122393 0.218524 0.241958 0.119502 0.226528 0.197471 
0.21436 0.207332 0.201322 0.190434 0.177712 0.181761 0.166148 0.173044 0.155816 
0.163199 0.143866 0.143129 0.153354 0.216138 0.134284 0.133558 0.141827 0.198452 
0.201099 0.125532 0.124193 0.132106 0.115927 0.115373 0.116053 0.116116 0.123075 
0.106448 0.10712 0.113294 0.0969689 0.0975813 0.0879796 0.0875525 0.0788715 0.0780733 
0.069673 0.0689655 0.0593006 0.0495101 0.0345668 0.0400309 0.030429 0.0254163 0.0210725 
0.0115802 0.0021558 0.0111379 -0.00726859 0.00493514 -0.0179193 -0.0170086 -0.0167817 -0.0168823 
-0.0267707 -0.026484 -0.0264209 -0.024495 -0.0244326 -0.0245037 -0.0244409 -0.0363052 -0.0362416 
-0.0361781 -0.0358332 -0.035352 -0.0350122 -0.0346732 -0.0348859 -0.0348228 -0.034485 -0.034169 
-0.0338328 -0.0342967 -0.0339818 -0.0339194 -0.0341084 -0.0340456 -0.0339829 -0.0339201 -0.0341281 
-0.0459032 -0.0458397 -0.0457761 -0.0453718 -0.04495 -0.0445508 -0.0441524 -0.0444245 -0.0440269 
-0.0436557 -0.0439014 -0.0438386 -0.0434685 -0.0434062 -0.0436503 -0.0435876 -0.0438562 -0.043793 
-0.0433993 -0.0436667 -0.0558055 -0.0553106 -0.0552471 -0.0551835 -0.05512 -0.0550565 -0.0545947 
-0.0549294 -0.0552938 -0.0548023 -0.0547387 -0.0546752 -0.0546116 -0.0532053 -0.0560279 -0.062744 
-0.067312 -0.0722826 -0.0788796 -0.0282149 -0.0823891 -0.0869494 -0.0921886 -0.0339538 -0.0913599 
-0.0971234 -0.1022 -0.0470294 -0.0394664 -0.101522 -0.102197 -0.113825 -0.0528218 -0.0527837 
-0.109691 -0.11112 -0.112604 -0.11254 -0.110929 -0.109377 -0.108628 -0.123753 -0.123682 
-0.0587918 -0.0582684 -0.0478823 -0.0469928 -0.11917 -0.120718 -0.122325 -0.122261 -0.120527 
-0.120464 -0.134422 -0.0638208 -0.063783 -0.0515763 -0.052271 -0.152452 -0.128775 -0.129578 
-0.130379 -0.130991 -0.129136 -0.12821 -0.144111 -0.0695294 -0.0689235 -0.0560145 -0.0573655 
-0.165953 -0.164576 -0.165807 -0.138254 -0.138191 -0.139977 -0.141575 -0.139596 -0.138611 
-0.153654 -0.0752379 -0.074591 -0.0605989 -0.060969 -0.0620885 -0.178315 -0.176931 -0.176858 
-0.1754 -0.146336 -0.146274 -0.146212 -0.14615 -0.145178 -0.146026 -0.147859 -0.148781 
-0.149702 -0.150699 -0.148213 -0.147169 -0.0655852 -0.0657681 -0.0662154 -0.193701 -0.19069 
-0.182149 -0.179472 -0.174272 -0.170623 -0.163721 -0.161461 -0.160341 -0.158246 -0.159158 
-0.161207 -0.158058 -0.158719 -0.158656 -0.158593 -0.158531 -0.157497 -0.157435 -0.157372 
-0.156259 -0.157247 -0.157185 -0.157123 -0.156011 -0.155949 -0.158951 -0.16316 -0.163095 
-0.158792 -0.158729 -0.173571 -0.0713601 -0.0705671 -0.0710738 -0.0713441 -0.203527 -0.200352 
-0.200278 -0.194353 -0.191443 -0.187244 -0.183221 -0.173443 -0.172262 -0.168763 -0.16767 
-0.167608 -0.16643 -0.166368 -0.168198 -0.165996 -0.165934 -0.169121 -0.173589 -0.171302 
-0.171238 -0.172284 -0.17333 -0.173265 -0.1732 -0.172027 -0.173071 -0.173006 -0.171834 
-0.171769 -0.169575 -0.168327 -0.0762048 -0.0755149 -0.075483 -0.182714 -0.183823 -0.183758 
-0.179237 -0.177925 -0.168523 -0.100136 -0.100527 -0.081711 -0.0813375 -0.0799747 -0.372925 
-0.191266 -0.192435 -0.191138 -0.188899 -0.188835 -0.178787 -0.105501 -0.105463 -0.0868574 
-0.086196 -0.0847875 -0.199536 -0.198179 -0.198116 -0.197184 -0.198497 -0.190434 -0.211063 
-0.111258 -0.0908032 -0.09011 -0.0896002 -0.209134 -0.221369 -0.0953508 -0.0953188 -0.0938218 
-0.218732 -0.233386 -0.122888 -0.122849 -0.0997674 -0.0989164 -0.226985 -0.226922 -0.24205 
-0.133076 -0.105013 -0.104501 -0.104469 -0.254214 -0.137353 -0.109393 -0.109669 -0.109637 
-0.399075 -0.268332 -0.274051 -0.114206 -0.114514 -0.114482 -0.414135 -0.28286 -0.288922 
-0.12109 -0.119723 -0.120176 -0.424936 -0.408604 -0.295604 -0.302019 -0.126519 -0.124203 
-0.124549 -0.418969 -0.411031 -0.399796 -0.130543 -0.130904 -0.129472 -0.424994 -0.413389 
-0.134845 -0.133925 -0.443066 -0.430942 -0.139283 -0.138769 -0.489334 -0.470321 -0.448743 
-0.440484 -0.34856 -0.144562 -0.143614 -0.504394 -0.46679 -0.454077 -0.445885 -0.441903 
-0.349307 -0.356865 -0.420193 -0.150498 -0.148012 -0.480753 -0.467669 -0.46341 -0.459152 
-0.360048 -0.365162 -0.429255 -0.155388 -0.152843 -0.606646 -0.606535 -0.599851 -0.593169 
-0.476884 -0.476794 -0.472419 -0.468209 -0.370788 -0.373466 -0.442222 -0.438429 -0.438345 
-0.160279 -0.16199 -0.157674 -0.499341 -0.494675 -0.490179 -0.485685 -0.392546 -0.395298 
-0.404196 -0.410433 -0.413512 -0.41659 -0.419833 -0.426394 -0.4298 -0.436689 -0.440258 
-0.440176 -0.443742 -0.169313 -0.166343 -0.162993 -0.503653 -0.49904 -0.490254 -0.167838 
-0.507844 -0.49901 -0.486253 -0.197447 -0.176188 -0.172682 -0.521085 -0.512027 -0.498945 
-0.202913 -0.179355 -0.178793 -0.717244 -0.52054 -0.503196 -0.486982 -0.482963 -0.206741 
-0.184245 -0.184213 -0.726423 -0.53806 -0.52875 -0.507145 -0.491119 -0.21142 -0.212131 
-0.189878 -0.189845 -0.743878 -0.53261 -0.519349 -0.506879 -0.5068 -0.215297 -0.216027 
-0.193456 -0.193424 -0.788575 -0.531554 -0.523022 -0.527166 -0.527086 -0.522782 -0.509654 
-0.509576 -0.513512 -0.513433 -0.513354 -0.513276 -0.509185 -0.501285 -0.221451 -0.221415 
-0.197554 -0.1983 -0.797154 -0.557627 -0.552811 -0.548203 -0.543595 -0.543514 -0.529683 
-0.529603 -0.533835 -0.533755 -0.533674 -0.529285 -0.533514 -0.516819 -0.226839 -0.226003 
-0.210782 -0.206554 -0.201815 -0.201185 -0.815015 -0.560507 -0.555799 -0.555718 -0.560261 
-0.551142 -0.551061 -0.555393 -0.559933 -0.559851 -0.559769 -0.564306 -0.559605 -0.50106 
-0.235784 -0.234928 -0.233867 -0.232192 -0.215818 -0.211495 -0.205233 -0.205202 -0.84279 
-0.607697 -0.612981 -0.618263 -0.618174 -0.618086 -0.617997 -0.617909 -0.612455 -0.612367 
-0.606915 -0.601679 -0.596445 -0.544473 -0.53604 -0.5199 -0.242088 -0.243099 -0.2156 
-0.487032 -0.46507 -0.471308 -0.467981 -0.467915 -0.464806 -0.458657 -0.458591 -0.458526 
-0.248643 -0.249463 -0.221376 -0.490494 -0.487303 -0.487235 -0.471935 -0.474977 -0.474911 
-0.474845 -0.471673 -0.465396 -0.468436 -0.468371 -0.467068 -0.25415 -0.253021 -0.223951 
-0.507791 -0.511137 -0.504011 -0.458203 -0.460861 -0.463746 -0.469802 -0.472684 -0.469674 
-0.484488 -0.481254 -0.47802 -0.257649 -0.258505 -0.227284 -0.231258 -0.510902 -0.507583 
-0.50055 -0.497234 -0.490668 -0.484336 -0.483564 -0.486512 -0.48969 -0.486382 -0.486317 
-0.483242 -0.483178 -0.480104 -0.48004 -0.473726 -0.470654 -0.470592 -0.464745 -0.458899 
-0.491031 -0.487735 -0.48444 -0.484375 -0.48431 -0.481247 -0.481183 -0.481118 -0.478057 
-0.480475 -0.261065 -0.265129 -0.236198 -0.514205 -0.510587 -0.507206 -0.497199 -0.496163 
-0.486651 -0.489894 -0.50258 -0.50582 -0.499144 -0.492706 -0.483202 -0.483139 -0.477177 
-0.474048 -0.50753 -0.500875 -0.497515 -0.497449 -0.494091 -0.494026 -0.490904 -0.49084 
-0.487719 -0.481307 -0.49026 -0.490196 -0.262772 -0.269475 -0.237001 -0.239517 -0.500579 
-0.503651 -0.500451 -0.497012 -0.506527 -0.493561 -0.506268 -0.499939 -0.27002 -0.277091 
-0.276374 -0.282617 -0.28498 -0.289127 -0.291449 -0.293669 -0.29821 -0.300215 -0.593852 
-0.593783 -0.589465 -0.30379 -0.303754 -0.309298 -0.309261 -0.281451 -0.315881 -0.315845 
-0.288277 -0.321407 -0.320276 -0.295256 -0.326933 -0.325784 -0.299524 -0.331291 -0.307782 
-0.303517 -0.335362 -0.307439 -0.340847 -0.345146 -0.353321 -0.360087 -0.361273 -0.364409 
-0.342011 -0.371175 -0.348455 -0.379575 -0.353661 -0.385142 -0.358866 -0.393336 -0.365453 
-0.364107 -0.408302 -0.396238 -0.391873 -0.372007 -0.369312 -0.376517 -0.371174 -0.414033 
-0.401805 -0.397381 -0.38399 -0.37991 -0.381832 -0.379107 -0.407372 -0.402888 -0.397864 
-0.392021 -0.387148 -0.383022 -0.412939 -0.408396 -0.397391 -0.391081 -0.388283 -0.41675 
-0.410742 -0.409301 -0.406104 -0.405675 -0.405639 -0.402797 -0.402762 -0.396378 -0.393543 
-0.394908 -0.396273 -0.394838 -0.416172 -0.414713 -0.411475 -0.407171 -0.405713 -0.406852 
-0.40966 -0.406782 -0.400152 -0.398699 -0.426323 -0.418359 -0.416882 -0.413964 -0.412488 
-0.412205 -0.413609 -0.409254 -0.406868 -0.406833 -0.426996 -0.42696 -0.423641 -0.422146 
-0.420651 -0.420616 -0.417663 -0.417627 -0.41905 -0.416098 -0.416063 -0.440589 -0.440552 
-0.435714 -0.42903 -0.42604 -0.427481 -0.427446 -0.425933 -0.425897 -0.422909 -0.474751 
-0.48445 -0.135092 -0.141741 -0.141912 -0.141906 -0.14208 -0.142074 -0.142825 -0.143 
0.157921 0.403917 0.20937 0.201359 0.144238 0.504198 0.236939 0.222798 0.214997 
0.207083 0.197991 0.14344 0.513599 0.502007 0.141153 0.132722 0.124829 0.115565 
0.105278 0.511396 0.505689 0.496873 0.416732 0.415033 0.115537 0.103455 0.521337 
0.506278 0.49741 0.419249 0.408251 0.401832 0.113146 0.10114 0.510098 0.495179 
0.483621 0.471947 0.424236 0.40835 0.110209 0.0993097 0.48988 0.472587 0.463771 
0.457476 0.446139 0.434703 0.423576 0.422005 0.408422 0.337222 0.106773 0.0965096 
-0.66541 0.48185 0.462316 0.453659 0.447511 0.438802 0.427689 0.416678 0.410375 
0.401718 0.340764 0.104428 0.0937723 -0.671733 -0.6846 0.432887 0.419195 0.338463 
0.327451 0.102082 0.0902471 -0.686773 -0.686791 0.438203 0.429224 0.338067 0.325164 
0.314279 0.0997366 0.0883821 -0.697708 -0.676626 0.321042 0.312006 0.304694 0.292266 
0.0964523 0.0864889 -0.66914 -0.677901 0.585669 0.57557 0.558092 0.288354 0.27943 
0.0937154 -0.671344 -0.675946 0.559258 0.295033 0.289388 0.278769 0.0901913 -0.678011 
-0.673964 0.274941 0.27207 0.26438 0.252373 0.0856619 -0.671413 -0.680229 -0.671957 
0.288065 0.277362 0.26827 0.260621 0.25286 0.0838345 -0.669195 -0.677955 -0.674122 
0.241341 0.233496 0.224232 0.21373 0.0911627 -0.675848 -0.67184 0.21028 0.197894 
0.189937 0.0986522 0.0897283 -0.669482 -0.666022 0.198831 0.187664 0.0973058 0.0874835 
-0.658285 -0.667046 -0.667539 -0.668174 0.187382 0.178234 0.169969 0.161656 0.0945976 
0.0845095 -0.656446 -0.665154 0.179846 0.170461 0.0931808 0.0826287 -0.658637 -0.671453 
0.170928 0.161358 0.152645 0.0999856 0.0913007 -0.644084 -0.656758 -0.661294 0.158045 
0.149381 0.136861 0.126208 0.117608 0.107295 0.0976985 -0.657868 -0.662706 -0.6671 
-0.663459 0.158263 0.146149 0.135225 0.125191 0.115866 0.10707 0.0967492 -0.668748 
-0.682108 0.154136 0.144566 -0.684022 -0.697564 0.13767 -0.690676 -0.69988 -0.688329 
-0.683787 0.229262 0.221833 0.2143 0.206665 0.197905 -0.673128 0.275507 0.239854 
0.228186 0.220354 0.213558 0.204355 -0.67974 -0.667196 0.282863 0.274666 0.263206 
0.21735 0.209089 0.198339 -0.672325 -0.686157 0.283863 0.272178 0.260734 0.217544 
0.209055 0.198275 -0.679223 -0.688487 0.284906 0.198145 0.187227 -0.681553 -0.681835 
0.287857 -0.678831 -0.683724 -0.683884 -0.688475 0.289068 -0.6767 -0.681517 -0.690842 
-0.695478 -0.661294 -0.67928 -0.659382 -0.672743 -0.656749 -0.661669 -0.662194 -0.663236 
-0.674596 0.353947 0.330428 0.312962 0.298084 -0.690556 0.34849 0.330024 0.314472 
0.301451 -0.688394 0.350739 0.33427 -0.662984 -0.676817 -0.672497 -0.656404 -0.670131 
-0.654561 -0.655281 -0.655745 -0.660697 -0.658106 -0.66749 -0.656063 -0.674314 -0.649085 
-0.653991 -0.654618 -0.660176 -0.674054 -0.674573 -0.666709 -0.66694 -0.664479 -0.669331 
-0.657316 -0.649142 -0.667304 -0.655103 -0.664608 -0.666768 -0.671701 -0.673535 -0.66939 
-0.670509 -0.671191 -0.671615 -0.671781 -0.668441 -0.664405 -0.660293 -0.66087 -0.661462 
-0.66219 -0.650438 -0.6556 -0.656201 -0.647865 -0.632955 -0.65268 -0.65825 -0.682267 
-0.672813 -0.677859 -0.665777 -0.676999 -0.687211 -0.684897 -0.67521 -0.672712 -0.694882 
-0.681745 -0.664154 -0.669614 -0.660731 -0.661463 -0.661893 -0.662604 -0.663402 -0.668915 
-0.669381 1.34458 1.28906 -0.661027 -0.666728 1.32904 -0.662511 -0.663113 -0.668743 
-0.674217 1.29996 -0.665241 -0.671088 -0.676497 -0.671994 0.856415 -0.694731 -0.673195 
-0.678825 0.959715 -0.691776 -0.686474 -0.681189 -0.681555 -0.700438 -0.700572 -0.689042 
-0.712223 -0.715821 -0.728251 -0.734315 -0.719442 -0.732092 -0.731378 -0.712381 -0.728545 
-0.70649 -0.716339 -0.691948 0.085874 0.0736572 -0.725857 0.0810518 0.0688262 0.652519 
0.15723 0.14584 0.123336 0.111982 0.09888 0.0857784 0.0343148 0.0195599 0.00397329 
-0.0118857 0.154104 0.0830135 0.0304866 0.0161968 0.00133317 -0.0137493 0.163406 -0.0464347 
-0.0620074 -0.0768488 -0.0953755 -0.110686 -0.12761 -0.688263 -0.688424 -0.14167 -0.158543 
-0.173694 -0.191093 -0.206404 -0.22435 -0.239825 -0.685359 -0.697582 -0.147202 -0.166344 
-0.177506 -0.188207 -0.205429 -0.222961 -0.238113 -0.70678 -0.706791 -0.254191 -0.275351 
-0.290662 -0.305973 -0.321284 -0.244076 -0.269881 -0.287957 -0.299565 -0.321494 -0.344298 
-0.347823 -0.366712 -0.394668 -0.410143 -0.716746 0.141656 -0.42951 -0.444985 -0.465592 
-0.492379 -0.508362 -0.524345 -0.719676 0.143582 -0.419247 -0.429497 -0.44924 -0.464237 
-0.495301 -0.528366 -0.716574 0.0648414 0.0520845 -0.554702 -0.564352 -0.56729 -0.589623 
-0.605433 -0.700628 0.0667912 0.0511908 0.0369734 0.0232805 0.009952 -0.578987 -0.595706 
-0.619812 -0.614489 -0.570538 -0.69764 -0.703781 -0.00925298 -0.0222495 -0.0339778 -0.0474456 
-0.0601181 -0.636325 -0.667634 -0.759372 -0.732222 -0.694241 -0.700822 -0.706935 -0.105905 
-0.119498 -0.642297 -0.619477 -0.626794 -0.639667 -0.666056 -0.672477 -0.685014 -0.110972 
-0.12318 -0.134853 -0.147806 -0.156919 -0.163695 -0.615441 -0.617159 -0.624117 -0.636874 
-0.663093 -0.669615 -0.682045 -0.178547 -0.1908 -0.207351 -0.229274 -0.238731 -0.250558 
-0.262101 -0.627326 -0.628635 -0.197582 -0.208091 -0.225852 -0.241163 -0.247849 -0.254181 
-0.26288 -0.625004 -0.631789 -0.280555 -0.301011 -0.318771 -0.340632 -0.359447 -0.370315 
-0.616847 -0.629277 -0.447524 -0.614612 -0.626938 -0.478878 -0.489699 -0.483122 -0.493226 
-0.503279 -0.6231 -0.63553 -0.511219 -0.52637 -0.566152 -0.619329 -0.631867 -0.644404 
-0.670118 -0.557536 -0.587606 -0.619073 -0.653296 -0.670407 -0.663314 -0.573003 -0.586105 
-0.599206 -0.606653 -0.619638 -0.626954 -0.622483 -0.691502 -0.691812 -0.644564 -0.592768 
-0.57164 -0.574022 -0.587365 -0.5894 -0.602502 -0.621498 -0.628705 -0.630192 -0.631447 
-0.707343 -0.707059 -0.608205 -0.615837 -0.716784 -0.723174 -0.636629 -0.631501 -0.713707 
-0.707174 -0.660301 -0.634986 -0.710323 -0.710275 -0.685604 -0.701049 -0.700995 -0.674798 
-0.7121 -0.70415 -0.704044 -0.677962 -0.662101 -0.675143 -0.654297 -0.756643 -0.683817 
-0.646938 -0.736386 -0.698113 -0.692203 -0.689164 -0.672311 -0.698097 -0.680961 -0.716095 
-0.695212 -0.678119 -0.719507 -0.704194 -0.69261 -0.683004 -0.689239 -0.674432 -0.680701 
-0.0187625 -0.666268 -0.672324 -0.00424011 -0.674824 -0.675251 0.0718632 0.0584604 0.0324237 
0.0194569 0.00635533 -0.00674624 -0.0206698 -0.036253 -0.594644 -0.6778 -0.672455 0.0693732 
0.0551939 0.0420586 0.0291853 0.0163121 -0.599644 -0.652273 -0.669469 -0.675358 0.0652718 
0.0516937 0.0386938 0.025947 0.0130737 -0.0700306 -0.602744 -0.649849 -0.655882 -0.667244 
-0.642341 0.0227277 0.00983541 -0.0716619 -0.646606 -0.622372 -0.634995 -0.646538 -0.652729 
-0.65874 0.0196097 0.00691395 -0.0732296 -0.650265 -0.648779 -0.649441 -0.650236 -0.661598 
0.0163095 0.00355249 -0.087815 -0.660031 -0.651731 -0.647039 0.0129937 0.00034349 -0.092704 
-0.541943 -0.62038 -0.656684 -0.664453 -0.676779 -0.671395 -0.660831 0.00962453 -0.00311775 
-0.0805152 -0.10161 -0.550924 -0.603063 -0.658698 -0.660417 -0.667553 -0.67397 -0.668656 
-0.663758 0.00619285 -0.00690896 -0.0358539 -0.0564869 -0.0767103 -0.111269 -0.646001 -0.652599 
-0.65899 -0.665422 0.00249355 -0.0108491 -0.0411773 -0.081837 -0.0991747 -0.672649 -0.661429 
-0.662039 -0.657268 -0.0505832 -0.669372 -0.675858 -0.658749 -0.047569 -0.658773 -0.665691 
-0.67261 -0.0533541 -0.07058 -0.655973 -0.662975 -0.675848 -0.0271427 -0.0419098 -0.65334 
-0.659971 0.437419 -0.0317955 -0.0539909 -0.650423 -0.66318 0.437978 0.432293 0.364042 
0.343053 0.325596 0.308758 -0.0785476 -0.670883 -0.640875 -0.653632 -0.660556 0.277315 
0.23423 0.232512 0.230634 0.220988 0.20752 0.195622 0.185018 0.172578 0.159912 
0.151951 -0.0384111 -0.0601601 -0.0827533 -0.661454 0.288724 0.272858 0.263146 0.249584 
0.234662 0.231185 0.227308 0.2176 0.204132 0.190665 0.180072 0.167683 0.153832 
0.142237 0.128115 -0.0447224 -0.0650732 -0.0869591 -0.66481 -0.65932 0.29125 0.253964 
0.241943 0.23514 0.142088 0.130738 0.113887 -0.0549619 -0.661904 -0.656658 0.292729 
0.279855 0.262769 0.260322 0.23928 0.13251 0.110192 -0.0581108 -0.652867 0.133252 
-0.631407 0.0291713 -0.626223 -0.63343 -0.62905 0.121622 0.0256347 -0.626415 0.301783 
0.29039 0.276268 0.114651 0.0968793 0.0219843 -0.604494 0.321088 0.294669 0.270296 
0.113581 0.0945387 0.0182602 -0.620186 0.354461 0.288409 0.279 0.269294 0.251924 
0.109561 0.0900016 0.0733278 0.0586371 0.0435704 0.0291682 -0.621938 -0.640707 0.26801 
0.252858 0.239946 0.0255524 0.011278 -0.631072 -0.649762 0.261749 0.253827 0.236094 
0.0365553 0.0219224 0.0078563 -0.628356 0.270862 0.256633 0.00410359 0.26944 0.249694 
-0.000474285 -0.616558 0.228526 0.201338 0.0103376 -0.00420768 -0.618278 -0.625226 0.00613647 
-0.00862534 0.0142752 0.00977569 -0.777074 0.00542395 0.0339733 0.0173042 0.000602294 0.0295575 
0.012974 -0.00323791 -0.78222 0.0253517 -0.743739 0.021146 -0.739186 -0.764665 0.0337623 
0.0170295 -0.68709 -0.698087 -0.690555 -0.669281 -0.702064 -0.694407 -0.672939 -0.673563 
-0.730728 -0.705987 -0.710019 -0.70988 -0.722046 -0.713772 -0.70988 -0.709813 -0.730087 
-0.721558 -0.744454 -0.726333 -0.722708 -0.714094 1.29128 1.23172 -0.70226 -0.702287 
1.28698 1.24135 -0.714818 -0.69822 1.28267 1.2234 -0.727646 -0.718698 1.26386 
1.24694 -0.69012 -0.723229 -0.72281 1.27406 1.24269 -0.678316 1.26976 1.22453 
-0.674715 -0.660711 1.26546 -0.702455 -0.72376 -0.723333 -0.719561 -0.710798 0.0080096 
-0.693948 -0.702539 -0.698252 -0.706793 -0.685445 -0.681476 -0.685731 -0.698358 -0.652561 
-0.661414 -0.686 -0.649042 -0.673487 -0.660973 -0.677692 -0.665179 -0.69009 -0.685658 
-0.702769 -0.632615 -0.649145 -0.67359 -0.69031 -0.636773 -0.645705 -0.618901 -0.634884 
-0.600129 -0.577895 -0.606218 -0.608084 -0.612061 -0.637685 -0.562837 -0.611059 -0.579258 
-0.615079 -0.610055 -0.633675 -0.619538 -0.621836 -0.631262 -0.618603 -0.6019 -0.606154 
-0.623068 -0.61785 -0.627322 -0.631577 -0.605024 -0.606661 -0.636046 -0.64513 -0.646481 
-0.606725 -0.613435 -0.625464 -0.626709 -0.622787 -0.61192 -0.613237 -0.610317 -0.607375 
-0.608718 -0.60559 -0.60691 -0.608271 -0.609394 -0.602841 -0.603983 -0.60521 -0.60281 
-0.615757 -0.612556 -0.605128 -0.610628 -0.611801 -0.610185 -0.615485 -0.616516 -0.613698 
-0.60688 -0.611989 -0.637543 -0.639087 -0.63634 -0.644177 -0.645262 -0.652795 -0.653741 
-0.654803 -0.668282 -0.662561 -0.672324 -0.672904 -0.640907 -0.648688 -0.64962 -0.644341 
-0.651745 -0.658901 -0.659587 -0.647511 -0.642516 -0.607606 -0.603289 -0.605171 -0.607122 
-0.608775 -0.635693 -0.610657 -0.612474 -0.617227 -0.612156 -0.614101 -0.615912 -0.617628 
-0.619475 -0.640251 -0.629687 -0.631103 -0.62664 -0.620662 -0.622543 -0.617401 -0.633054 
-0.641561 -0.616718 -0.636129 -0.59836 -0.513564 -0.517865 -0.5265 -0.516434 -0.510966 
-0.521085 -0.530862 -0.501671 -0.500277 -0.527311 -0.542964 -0.50108 -0.527442 -0.53109 
-0.533486 -0.535811 -0.520877 -0.547655 -0.545006 -0.53486 -0.54418 -0.553491 -0.534889 