# vtk DataFile Version 4.2
vtk output
ASCII
DATASET POLYDATA
POINTS 7435 float
-4.30851 1.26474 0.995258 -4.34843 1.29488 1.0055 -1.92549 1.23639 0.397504 
-1.93099 1.24754 0.398971 -1.94315 1.26441 0.402151 -1.94311 1.27093 0.402192 
-4.38679 1.20766 0.999218 -4.38669 1.22459 0.999326 -4.04016 1.12996 0.913025 
-4.04007 1.14542 0.913124 -4.18655 1.20933 0.949788 -4.10971 1.42078 0.93246 
-4.07411 1.42237 0.923681 -4.10953 1.4523 0.932661 -1.91711 1.23723 0.389641 
-1.9359 1.25971 0.394453 -4.38233 1.20774 0.982878 -4.2203 1.17315 0.943223 
-4.0006 1.11859 0.889396 -4.0715 1.15709 0.906928 -4.22003 1.22188 0.943534 
-4.14425 1.26061 0.925415 -4.07009 1.40683 0.908521 -4.03453 1.40827 0.899887 
-4.10539 1.45237 0.917455 -1.91546 1.23084 0.383407 -1.92206 1.2429 0.385104 
-4.10347 1.05843 0.899735 -4.06792 1.06351 0.89127 -4.14096 1.10147 0.909037 
-4.17854 1.12907 0.918241 -4.21612 1.15699 0.927448 -4.03055 1.39288 0.884875 
-1.93259 1.24028 0.381788 -1.93255 1.24678 0.381829 -1.93252 1.25327 0.381871 
-4.09932 1.05851 0.884529 -4.09924 1.07427 0.884629 -4.06188 1.40698 0.878402 
-1.9364 1.24496 0.376851 -1.94298 1.2571 0.378495 -4.24664 1.10369 0.904735 
-4.09313 1.42107 0.871636 -1.9413 1.25058 0.372132 -4.28328 1.09936 0.898192 
-4.20367 1.09224 0.880016 -4.08899 1.42114 0.85643 -1.95833 1.2598 0.37015 
-1.9715 1.2776 0.373286 -4.08484 1.42122 0.841224 -1.95002 1.24767 0.362191 
-4.0807 1.42129 0.826017 -1.94279 1.24309 0.354577 -1.94275 1.24967 0.354618 
-4.07656 1.42136 0.810811 -1.93448 1.2376 0.346764 -1.93444 1.24415 0.346806 
-4.18448 1.46615 0.819711 -1.94481 1.24776 0.343077 -1.92066 1.23399 0.337851 
-4.51483 1.6176 0.874838 -4.25904 1.53095 0.820937 -1.90684 1.23673 0.329079 
-4.42139 1.58179 0.839367 -2.44792 1.62171 0.436614 -1.91076 1.21555 0.323845 
-4.28983 1.53047 0.796844 -4.09703 1.46841 0.757759 -4.09694 1.48433 0.757861 
-3.98955 1.45543 0.736134 -4.05557 1.46901 0.735083 -4.16693 1.54767 0.75754 
-4.01646 1.4546 0.713043 -3.94646 1.44094 0.699472 -4.12552 1.53203 0.734605 
-1.90028 1.19816 0.30395 -1.88171 1.1891 0.300311 -2.16767 1.38424 0.349826 
-2.14259 1.37142 0.345004 -2.03582 1.29844 0.32434 -2.11674 1.3445 0.333154 
-2.01226 1.27356 0.313353 -1.97199 1.24729 0.305729 -1.91432 1.20622 0.294785 
-1.83891 1.21209 0.280916 -2.08441 1.31252 0.320291 -2.01047 1.26665 0.306604 
-1.97676 1.2459 0.300366 -1.8482 1.20918 0.276889 -1.84274 1.21067 0.275914 
-2.01632 1.25893 0.301197 -2.00217 1.25443 0.298667 -1.98152 1.24446 0.294948 
-1.94242 1.21914 0.287859 -1.87476 1.23379 0.276024 -1.87473 1.24016 0.276065 
-1.99393 1.23537 0.29074 -1.98739 1.23699 0.289624 -1.97326 1.23236 0.287152 
-1.87981 1.20112 0.2708 -1.89158 1.237 0.273095 -1.89154 1.24344 0.273136 
-1.89151 1.24989 0.273177 -1.89147 1.25634 0.273218 -2.02704 1.21407 0.289818 
-2.01942 1.2152 0.288543 -2.01288 1.2171 0.287455 -2.01284 1.22409 0.2875 
-2.00522 1.22505 0.286223 -1.99869 1.22681 0.285135 -1.99215 1.22851 0.284046 
-1.98562 1.23016 0.282957 -1.97151 1.22559 0.280546 -1.86081 1.18648 0.261604 
-1.88988 1.23703 0.266875 -1.88985 1.24347 0.266916 -1.99058 1.18719 0.277132 
-1.99054 1.19408 0.277176 -1.98401 1.19587 0.276116 -1.9764 1.19674 0.27487 
-1.97636 1.20357 0.274914 -1.96984 1.20522 0.273852 -1.96331 1.2068 0.27279 
-1.95678 1.20833 0.271728 -1.94377 1.20452 0.26956 -1.85915 1.18651 0.255507 
-1.89359 1.24174 0.261577 -1.90004 1.25385 0.262727 -1.98888 1.16654 0.27035 
-1.99532 1.17842 0.271471 -1.9888 1.18033 0.270438 -1.98209 1.21649 0.269624 
-1.97449 1.21727 0.268411 -1.88016 1.2058 0.253189 -1.89189 1.24177 0.255334 
-1.89833 1.25388 0.256456 -1.95365 1.13419 0.258238 -1.96009 1.1459 0.25933 
-1.98055 1.16848 0.262695 -2.02136 1.2353 0.269564 -2.01377 1.23633 0.268384 
-1.99323 1.2269 0.265102 -1.97269 1.2173 0.26182 -1.86661 1.19574 0.245067 
-1.87304 1.20764 0.24616 -1.87301 1.21403 0.246201 -1.87836 1.22508 0.247119 
-1.8848 1.23712 0.248213 -1.88476 1.24356 0.248254 -1.94541 1.12929 0.250708 
-1.95184 1.14097 0.251772 -2.00569 1.1893 0.260329 -1.97852 1.20969 0.256335 
-1.97848 1.21656 0.256379 -1.95796 1.2069 0.253183 -1.8714 1.20127 0.239949 
-1.87675 1.21227 0.240844 -1.87671 1.21869 0.240885 -1.88314 1.2307 0.241952 
-1.88849 1.24183 0.242847 -1.88845 1.2483 0.242889 -2.76898 1.26146 0.367618 
-2.76892 1.27179 0.367684 -2.76886 1.28213 0.36775 -2.46363 1.14705 0.321494 
-2.45172 1.14914 0.319743 -1.93726 1.11101 0.243148 -1.92431 1.10788 0.241203 
-1.92427 1.11452 0.241245 -1.93054 1.15275 0.242452 -1.9305 1.15941 0.242494 
-1.93046 1.16607 0.242537 -1.93043 1.17273 0.242579 -1.85795 1.17853 0.231869 
-1.87513 1.19947 0.234569 -1.88693 1.21597 0.236439 -2.46162 1.08412 0.312413 
-2.39344 1.10782 0.302747 -2.39339 1.11652 0.302802 -2.37289 1.11319 0.29982 
-2.33086 1.09693 0.293639 -1.92905 1.10616 0.235728 -1.92256 1.10792 0.234804 
-1.91069 1.1055 0.233075 -1.90421 1.10712 0.23215 -1.92234 1.14771 0.235058 
-1.91585 1.14923 0.234133 -1.91581 1.15584 0.234175 -1.9104 1.15814 0.233411 
-1.91574 1.16904 0.234259 -1.86166 1.18309 0.226557 -1.87989 1.20497 0.229346 
-1.89168 1.22151 0.231166 -2.53044 1.08589 0.313728 -2.50673 1.08253 0.310379 
-2.48194 1.07837 0.306873 -2.4593 1.07517 0.303676 -2.43559 1.07118 0.300323 
-2.34922 1.08354 0.288301 -2.34917 1.09206 0.288355 -2.31902 1.08285 0.284061 
-2.28887 1.07337 0.279765 -2.18758 1.05244 0.265413 -1.95964 1.11017 0.233865 
-1.94027 1.10251 0.231094 -1.93378 1.10438 0.230198 -1.9273 1.10619 0.229302 
-1.92082 1.10795 0.228406 -1.87183 1.18669 0.222101 -1.87823 1.19855 0.223084 
-1.88357 1.20956 0.223911 -2.56597 1.03961 0.309585 -2.57881 1.0556 0.311448 
-2.54115 1.04596 0.306252 -2.55291 1.06141 0.307964 -2.54104 1.06469 0.306372 
-2.54099 1.07406 0.306431 -2.29641 1.07086 0.273112 -2.27703 1.06767 0.270451 
-2.18553 1.05248 0.257885 -2.18549 1.06028 0.257935 -2.16826 1.05735 0.25557 
-2.15211 1.05494 0.253354 -2.12738 1.04695 0.249929 -1.99127 1.10717 0.23183 
-1.98479 1.10941 0.230964 -1.97832 1.11159 0.230098 -1.97184 1.11372 0.229231 
-1.95141 1.10541 0.226391 -1.93206 1.09772 0.223702 -1.85842 1.16405 0.21415 
-1.84766 1.16144 0.212666 -1.86478 1.1822 0.215146 -2.51411 1.0149 0.293749 
-2.51405 1.02415 0.293808 -2.5022 1.02739 0.292265 -2.51395 1.04267 0.293926 
-2.5139 1.05192 0.293985 -2.50204 1.055 0.292441 -2.28458 1.0652 0.263798 
-2.28453 1.07345 0.263851 -2.24681 1.08346 0.25894 -2.23711 1.08559 0.257675 
-2.21883 1.0823 0.255238 -2.20162 1.07952 0.252946 -2.18335 1.07592 0.250507 
-2.15006 1.06263 0.246017 -1.99695 1.11266 0.226155 -1.98297 1.10944 0.224287 
-1.9765 1.11163 0.223448 -1.96253 1.1082 0.221578 -1.94963 1.10544 0.219855 
-1.9303 1.09775 0.217248 -1.85139 1.15962 0.207268 -1.88027 1.19021 0.211301 
-1.8631 1.18223 0.208976 -2.51178 0.996429 0.2847 -2.49993 0.999817 0.283209 
-2.49988 1.00902 0.283267 -2.48696 1.01171 0.281634 -2.30174 1.0683 0.258336 
-2.27277 1.05954 0.254567 -2.27272 1.06775 0.254619 -2.27267 1.07595 0.254671 
-2.28227 1.08998 0.255999 -2.08373 1.02922 0.230164 -2.08369 1.03659 0.230211 
-2.08365 1.04396 0.230258 -2.06112 1.03665 0.227323 -2.04608 1.03406 0.225381 
-2.04604 1.04127 0.225427 -2.0535 1.05347 0.226468 -2.04596 1.05568 0.225519 
-2.04592 1.06288 0.225565 -2.04588 1.07009 0.225611 -2.04584 1.07729 0.225657 
-2.0458 1.0845 0.225703 -2.04575 1.0917 0.225749 -2.03822 1.09368 0.224799 
-2.03818 1.10085 0.224844 -2.03064 1.10273 0.223893 -2.01668 1.09998 0.222088 
-2.00915 1.1017 0.221136 -2.00161 1.10335 0.220184 -1.99515 1.10571 0.219373 
-1.84437 1.15518 0.200432 -2.49756 0.990655 0.274269 -2.48466 0.993457 0.272691 
-2.46095 1.00885 0.269864 -2.33078 1.05268 0.254053 -2.32003 1.05501 0.252738 
-2.25251 1.03257 0.244217 -2.24283 1.03504 0.243036 -2.23315 1.03743 0.241855 
-1.84805 1.15967 0.195028 -2.49514 0.990699 0.265389 -2.48226 0.9935 0.263866 
-2.44788 1.00341 0.25982 -2.33817 1.05821 0.247072 -2.30819 1.04952 0.243421 
-2.28783 1.04615 0.24096 -2.25892 1.0376 0.237438 -2.2407 1.03508 0.235239 
-2.22248 1.0324 0.233039 -1.8752 1.18383 0.192529 -2.44572 0.967472 0.250911 
-2.43392 0.970599 0.249569 -2.42211 0.973621 0.248226 -2.42206 0.982513 0.248283 
-2.41123 1.00361 0.247179 -2.367 1.05862 0.242452 -2.35734 1.06183 0.241358 
-2.33593 1.05825 0.238859 -2.30599 1.04956 0.235336 -1.85012 1.15147 0.183355 
-1.88527 1.18717 0.187669 -2.39844 0.962896 0.237193 -2.39839 0.971693 0.237249 
-2.39824 0.998083 0.237417 -2.38645 1.0007 0.236122 -2.3864 1.00944 0.236178 
-2.37569 1.01247 0.235005 -2.37564 1.02117 0.23506 -2.36492 1.02406 0.233886 
-2.36487 1.03271 0.233941 -2.36472 1.05866 0.234107 -2.35508 1.06187 0.233054 
-2.3337 1.05828 0.230646 -2.34431 1.07294 0.231932 -1.90169 1.19571 0.183458 
-2.3844 0.957015 0.227406 -2.38435 0.96576 0.227462 -2.37355 0.986421 0.226447 
-2.3735 0.995119 0.226502 -2.37345 1.00382 0.226558 -2.36274 1.0068 0.22543 
-2.36269 1.01545 0.225485 -2.36264 1.0241 0.22554 -2.3626 1.03275 0.225595 
-2.35296 1.03608 0.224584 -2.35291 1.04469 0.224639 -2.35286 1.0533 0.224694 
-2.34216 1.05586 0.223564 -1.88191 1.17418 0.174999 -1.89996 1.19574 0.177086 
-3.47598 1.21012 0.333573 -3.45034 1.21319 0.33095 -3.45026 1.22669 0.331036 
-2.36081 0.946289 0.216698 -2.36076 0.954939 0.216753 -2.36057 0.989538 0.216974 
-2.36052 0.998188 0.217029 -2.17758 1.0659 0.198629 -2.16903 1.06838 0.197764 
-2.09487 1.15663 0.190729 -2.07888 1.15269 0.189052 -2.03418 1.12793 0.184268 
-1.99055 1.10355 0.179597 -1.98413 1.1059 0.178952 -1.99791 1.12303 0.180493 
-2.01914 1.14576 0.18284 -1.82299 1.09539 0.162256 -1.8017 1.08444 0.159983 
-1.79635 1.08629 0.159444 -1.8282 1.11854 0.162954 -1.87492 1.16332 0.168085 
-3.4724 1.21019 0.320447 -3.44679 1.21326 0.317933 -3.42118 1.2161 0.315418 
-2.36917 0.951713 0.209442 -2.35849 0.954979 0.208407 -2.36892 0.9952 0.209719 
-2.36887 1.0039 0.209775 -2.27646 1.12924 0.201497 -2.2201 1.10196 0.195728 
-2.07697 1.14532 0.181861 -2.06206 1.14207 0.180362 -2.05459 1.14405 0.179636 
[...]
POINT_DATA 7435
SCALARS z_coord float
LOOKUP_TABLE default
0.995258 1.0055 0.397504 0.398971 0.402151 0.402192 0.999218 0.999326 0.913025 
0.913124 0.949788 0.93246 0.923681 0.932661 0.389641 0.394453 0.982878 0.943223 
0.889396 0.906928 0.943534 0.925415 0.908521 0.899887 0.917455 0.383407 0.385104 
0.899735 0.89127 0.909037 0.918241 0.927448 0.884875 0.381788 0.381829 0.381871 
0.884529 0.884629 0.878402 0.376851 0.378495 0.904735 0.871636 0.372132 0.898192 
0.880016 0.85643 0.37015 0.373286 0.841224 0.362191 0.826017 0.354577 0.354618 
0.810811 0.346764 0.346806 0.819711 0.343077 0.337851 0.874838 0.820937 0.329079 
0.839367 0.436614 0.323845 0.796844 0.757759 0.757861 0.736134 0.735083 0.75754 
0.713043 0.699472 0.734605 0.30395 0.300311 0.349826 0.345004 0.32434 0.333154 
0.313353 0.305729 0.294785 0.280916 0.320291 0.306604 0.300366 0.276889 0.275914 
0.301197 0.298667 0.294948 0.287859 0.276024 0.276065 0.29074 0.289624 0.287152 
0.2708 0.273095 0.273136 0.273177 0.273218 0.289818 0.288543 0.287455 0.2875 
0.286223 0.285135 0.284046 0.282957 0.280546 0.261604 0.266875 0.266916 0.277132 
0.277176 0.276116 0.27487 0.274914 0.273852 0.27279 0.271728 0.26956 0.255507 
0.261577 0.262727 0.27035 0.271471 0.270438 0.269624 0.268411 0.253189 0.255334 
0.256456 0.258238 0.25933 0.262695 0.269564 0.268384 0.265102 0.26182 0.245067 
0.24616 0.246201 0.247119 0.248213 0.248254 0.250708 0.251772 0.260329 0.256335 
0.256379 0.253183 0.239949 0.240844 0.240885 0.241952 0.242847 0.242889 0.367618 
0.367684 0.36775 0.321494 0.319743 0.243148 0.241203 0.241245 0.242452 0.242494 
0.242537 0.242579 0.231869 0.234569 0.236439 0.312413 0.302747 0.302802 0.29982 
0.293639 0.235728 0.234804 0.233075 0.23215 0.235058 0.234133 0.234175 0.233411 
0.234259 0.226557 0.229346 0.231166 0.313728 0.310379 0.306873 0.303676 0.300323 
0.288301 0.288355 0.284061 0.279765 0.265413 0.233865 0.231094 0.230198 0.229302 
0.228406 0.222101 0.223084 0.223911 0.309585 0.311448 0.306252 0.307964 0.306372 
0.306431 0.273112 0.270451 0.257885 0.257935 0.25557 0.253354 0.249929 0.23183 
0.230964 0.230098 0.229231 0.226391 0.223702 0.21415 0.212666 0.215146 0.293749 
0.293808 0.292265 0.293926 0.293985 0.292441 0.263798 0.263851 0.25894 0.257675 
0.255238 0.252946 0.250507 0.246017 0.226155 0.224287 0.223448 0.221578 0.219855 
0.217248 0.207268 0.211301 0.208976 0.2847 0.283209 0.283267 0.281634 0.258336 
0.254567 0.254619 0.254671 0.255999 0.230164 0.230211 0.230258 0.227323 0.225381 
0.225427 0.226468 0.225519 0.225565 0.225611 0.225657 0.225703 0.225749 0.224799 
0.224844 0.223893 0.222088 0.221136 0.220184 0.219373 0.200432 0.274269 0.272691 
0.269864 0.254053 0.252738 0.244217 0.243036 0.241855 0.195028 0.265389 0.263866 
0.25982 0.247072 0.243421 0.24096 0.237438 0.235239 0.233039 0.192529 0.250911 
0.249569 0.248226 0.248283 0.247179 0.242452 0.241358 0.238859 0.235336 0.183355 
0.187669 0.237193 0.237249 0.237417 0.236122 0.236178 0.235005 0.23506 0.233886 
0.233941 0.234107 0.233054 0.230646 0.231932 0.183458 0.227406 0.227462 0.226447 
0.226502 0.226558 0.22543 0.225485 0.22554 0.225595 0.224584 0.224639 0.224694 
0.223564 0.174999 0.177086 0.333573 0.33095 0.331036 0.216698 0.216753 0.216974 
0.217029 0.198629 0.197764 0.190729 0.189052 0.184268 0.179597 0.178952 0.180493 
0.18284 0.162256 0.159983 0.159444 0.162954 0.168085 0.320447 0.317933 0.315418 
0.209442 0.208407 0.209719 0.209775 0.201497 0.195728 0.181861 0.180362 0.179636 
0.178909 0.178956 0.178228 0.1775 0.153988 0.152917 0.154623 0.158107 0.16237 
0.164969 0.315117 0.315473 0.312862 0.31295 0.179592 0.177955 0.170921 0.171708 
0.171754 0.17106 0.170503 0.169807 0.16911 0.164914 0.22635 0.225023 0.218321 
0.186193 0.190123 0.1778 0.176137 0.163229 0.163984 0.163321 0.163367 0.163551 
0.163597 0.162933 0.278022 0.296376 0.219129 0.216443 0.206254 0.186392 0.186448 
0.18756 0.183775 0.184695 0.164245 0.152858 0.153579 0.157584 0.158306 0.158353 
0.157323 0.156691 0.154121 0.150967 0.340931 0.344775 0.35662 0.215797 0.205205 
0.199125 0.196838 0.178904 0.179873 0.180843 0.152813 0.150932 0.150336 0.149096 
0.147211 0.146062 0.147302 0.147292 0.143181 0.142578 0.143823 0.142665 0.139934 
0.324091 0.314085 0.310904 0.314303 0.321081 0.324655 0.321304 0.311444 0.30834 
0.308447 0.318367 0.318478 0.318588 0.341003 0.333565 0.330028 0.333795 0.190664 
0.188412 0.187359 0.172151 0.173162 0.173219 0.145059 0.143274 0.14332 0.142755 
0.140967 0.139265 0.140446 0.13985 0.136558 0.135987 0.136646 0.135547 0.132953 
0.294348 0.291426 0.300788 0.300898 0.301009 0.301119 0.301229 0.295105 0.292174 
0.289401 0.289507 0.286651 0.289719 0.181066 0.183243 0.163506 0.168056 0.171792 
0.172833 0.177964 0.178026 0.173015 0.168408 0.166583 0.166641 0.163175 0.15905 
0.157547 0.157602 0.158477 0.158532 0.164419 0.166202 0.125526 0.25283 0.154029 
0.15825 0.23649 0.236598 0.241998 0.147045 0.151891 0.22015 0.215893 0.223106 
0.223215 0.100581 0.203811 0.197877 0.206588 0.206697 0.206807 0.209048 0.134511 
0.133113 0.139949 0.185578 0.182045 0.192021 0.190179 0.190289 0.171791 0.166739 
0.163595 0.171132 0.167889 0.0820864 0.160117 0.156379 0.151887 0.0756391 0.141486 
0.134621 0.138453 0.135886 0.125715 0.122034 0.118562 0.116413 0.122113 0.119885 
0.107467 0.105449 0.102503 0.105774 0.102884 0.0905135 0.0888628 0.0864444 0.0849577 
0.0894341 0.0870519 0.0888345 0.0897588 0.0749065 0.0742826 0.0729664 0.0724169 0.0712196 
0.0734861 0.0576827 0.055492 0.0573202 0.0608816 0.0598891 0.0411544 0.0439646 0.0433334 
0.0438135 0.0235389 0.0243599 0.00800902 0.00892955 0.00902998 -0.00783676 -0.0074144 -0.0237539 
-0.060261 -0.056433 -0.0754473 -0.0137462 -0.0136895 -0.0135104 -0.0129744 -0.0889208 -0.0225106 
-0.0222683 -0.0220435 -0.020762 -0.102725 -0.102621 -0.0300719 -0.0293979 -0.0285128 -0.026312 
-0.0255444 -0.0208897 -0.0339021 -0.03344 -0.0327478 -0.0278439 -0.028483 -0.0401448 -0.0398531 
-0.034098 -0.0342338 -0.0347582 -0.0409279 -0.0408839 -0.0485559 -0.0485111 -0.188856 -0.0562479 
-0.0556709 -0.18531 -0.205374 -0.0652026 -0.0628268 -0.0624424 -0.062737 -0.0624672 -0.219396 
-0.0692962 -0.0679241 -0.0692068 -0.0688438 -0.0678893 -0.22666 -0.235736 -0.0957743 -0.0764644 
-0.0749201 -0.0735629 -0.0739215 -0.0749114 -0.247617 -0.252075 -0.0930799 -0.0929827 -0.0924253 
-0.091932 -0.0909307 -0.0832608 -0.0812242 -0.080588 -0.0816607 -0.0828562 -0.260733 -0.271335 
-0.274254 -0.0994536 -0.0994054 -0.0998349 -0.0993091 -0.097693 -0.0971686 -0.0956444 -0.0946451 
-0.0878743 -0.0872544 -0.0872106 -0.087966 -0.29106 -0.294238 -0.100983 -0.0975292 -0.0956729 
-0.0956291 -0.0955853 -0.0946006 -0.093689 -0.0933785 -0.289349 -0.0993189 -0.0999691 -0.105855 
-0.106078 -0.323853 -0.113456 -0.112901 -0.112641 -0.350869 -0.361865 -0.357734 -0.119291 
-0.119247 -0.119204 -0.371316 -0.370224 -0.374209 -0.126506 -0.126463 -0.125854 -0.124681 
-0.387834 -0.386741 -0.390905 -0.204074 -0.202623 -0.131319 -0.131868 -0.131825 -0.13119 
-0.395538 -0.404242 -0.403259 -0.218272 -0.216755 -0.137207 -0.420869 -0.419777 -0.226794 
-0.225214 -0.144379 -0.452107 -0.457184 -0.451092 -0.236833 -0.236767 -0.235122 -0.152237 
-0.458794 -0.463808 -0.462915 -0.298114 -0.248582 -0.248516 -0.248449 -0.161816 -0.164817 
-0.465029 -0.490787 -0.300458 -0.256911 -0.255137 -0.253364 -0.174944 -0.492186 -0.486722 
-0.496561 -0.300382 -0.261631 -0.261567 -0.259857 -0.184563 -0.514556 -0.508771 -0.519244 
-0.519131 -0.495992 -0.30466 -0.187043 -0.503109 -0.497588 -0.53631 -0.531222 -0.518934 
-0.524544 -0.51342 -0.529786 -0.512351 -0.552684 -0.535005 -0.552994 -0.546627 -0.534456 
-0.534346 -0.551113 -0.551007 -0.539379 -0.533836 -0.583606 -0.583489 -0.576622 -0.563467 
-0.211526 -0.561022 -0.567008 -0.555052 -0.543758 -0.584846 -0.584736 -0.58042 -0.580308 
-0.580195 -0.218291 -0.595422 -0.582798 -0.58878 -0.588673 -0.588566 -0.618368 -0.611364 
-0.618142 -0.6113 -0.618334 -0.611069 -0.226209 -0.592267 -0.592163 -0.611329 -0.602379 
-0.58965 -0.608735 -0.602059 -0.601952 -0.601845 -0.601738 -0.614932 -0.621558 -0.614214 
-0.594066 -0.587446 -0.574988 -0.562867 -0.231909 -0.233005 -0.627993 -0.614695 -0.614589 
-0.634618 -0.61226 -0.625291 -0.618438 -0.625075 -0.624967 -0.631777 -0.638585 -0.631559 
-0.624534 -0.578539 -0.56678 -0.572505 -0.584226 -0.578125 -0.236495 -0.588227 -0.582141 
-0.570427 -0.575957 -0.606461 -0.245706 -0.242255 -0.241178 -0.247847 -0.568421 -0.597198 
-0.597096 -0.603128 -0.609158 -0.251231 -0.254721 -0.583051 -0.594426 -0.600248 -0.594229 
-0.605966 -0.263952 -0.268983 -0.609044 -0.608945 -0.554005 -0.270885 -0.55266 -0.538414 
-0.279107 -0.58119 -0.565814 -0.565726 -0.565638 -0.546302 -0.532725 -0.277389 -0.276173 
-0.284661 -0.599996 -0.594423 -0.594334 -0.599723 -0.583602 -0.573369 -0.280056 -0.286203 
-0.613349 -0.607657 -0.58143 -0.571389 -0.566535 -0.297868 -0.28913 -0.615825 -0.610224 
-0.584271 -0.560446 -0.555914 -0.607378 -0.587156 -0.568022 -0.550193 -0.554443 -0.550037 
-0.604696 -0.609697 -0.59458 -0.557587 -0.540714 -0.536662 -0.314876 -0.564793 -0.547806 
-0.547731 -0.320203 -0.554885 -0.550671 -0.542549 -0.538568 -0.546542 -0.561874 -0.5618 
-0.570169 -0.561653 -0.561579 -0.564415 -0.564342 -0.560207 -0.564197 -0.564125 -0.353543 
-0.852099 -0.563203 -0.57117 -0.571098 -0.571026 -0.575094 -0.362246 -0.841982 -0.841881 
-0.841781 -0.859074 -0.586136 -0.581846 -0.577805 -0.569478 -0.866043 -0.865942 -0.874694 
-0.883443 -0.580075 -0.580005 -0.571855 -0.556134 -0.559852 -0.555999 -0.881405 -0.582446 
-0.574408 -0.570227 -0.551399 -0.905933 -0.539798 -0.539734 -0.539671 -0.560038 -0.559974 
-0.563633 -0.555286 -0.564573 -0.543827 -0.537168 -0.534085 -0.563488 -0.556438 -0.543121 
-0.555341 -0.562036 -0.54863 -0.551381 -0.551322 -0.554437 -0.563308 -0.576729 -0.594829 
-0.605945 -0.613434 -0.574604 -0.577969 -0.574491 -0.589956 -0.582956 -0.579744 -0.591365 
-0.591308 -0.586579 -0.547519 -0.565002 -0.575681 -0.56403 -0.567612 -0.526641 -0.548402 
-0.538137 -0.53058 -0.532753 -0.540098 -0.554331 -0.556766 -0.536088 -0.526853 -0.537945 
-0.533251 -0.528946 -0.524254 -0.524213 -0.52867 -0.524316 -0.517609 -0.521881 -0.530465 
-0.532437 -0.539138 -0.539096 -0.527951 -0.517205 -0.518576 -0.518536 -0.518495 -0.520433 
-0.520393 -0.524704 -0.534145 -0.525681 -0.519185 -0.531698 -0.568588 -0.571022 -0.57098 
-0.568461 -0.568419 -0.568377 -0.568334 -0.570682 -0.568123 -0.565563 -0.565479 -0.563376 
-0.565395 -0.55096 -0.548868 -0.56572 -0.565679 -0.563549 -0.563508 -0.563466 -0.565512 
-0.565471 -0.567933 -0.562554 -0.560012 -0.55997 -0.557845 -0.555304 -0.55318 -0.550639 
-0.562726 -0.562685 -0.560533 -0.555849 -0.555809 -0.565012 -0.55265 -0.55261 -0.550042 
-0.534855 -0.539008 -0.538969 -0.562334 -0.560159 -0.560118 -0.557517 -0.557477 -0.557437 
-0.555263 -0.54326 -0.543221 -0.543181 -0.541014 -0.540975 -0.538808 -0.536641 -0.536602 
-0.536564 -0.536525 -0.536486 -0.530115 -0.532196 -0.538512 -0.559392 -0.559352 -0.557155 
-0.552801 -0.542738 -0.54485 -0.546963 -0.546924 -0.549035 -0.548996 -0.544656 -0.538165 
-0.538127 -0.538089 -0.5359 -0.533792 -0.535895 -0.537998 -0.559072 -0.556851 -0.554631 
-0.554592 -0.554553 -0.535574 -0.535536 -0.533325 -0.529378 -0.527602 -0.527528 -0.52749 
-0.527416 -0.565224 -0.56298 -0.562941 -0.560697 -0.562862 -0.530759 -0.532915 -0.532878 
-0.532841 -0.532803 -0.532766 -0.532729 -0.532691 -0.568952 -0.57114 -0.568873 -0.56438 
-0.562114 -0.532395 -0.536348 -0.534095 -0.536274 -0.534021 -0.533983 -0.536162 -0.533909 
-0.566114 -0.563824 -0.561535 -0.563747 -0.561458 -0.56142 -0.561381 -0.535895 -0.535858 
-0.535821 -0.535784 -0.535747 -0.53571 -0.537463 -0.539216 -0.541416 -0.541379 -0.526567 
-0.522959 -0.567522 -0.567483 -0.565171 -0.563313 -0.563275 -0.537392 -0.537355 -0.541277 
-0.541241 -0.541204 -0.542975 -0.544746 -0.517164 -0.558613 -0.558576 -0.558538 -0.558501 
-0.556167 -0.550275 -0.550238 -0.552483 -0.539961 -0.535822 -0.531684 -0.522533 -0.518852 
-0.524285 -0.559621 -0.557728 -0.547493 -0.545614 -0.541433 -0.539555 -0.539519 -0.539483 
-0.537145 -0.561476 -0.559096 -0.551158 -0.546936 -0.542714 -0.540818 -0.540782 -0.538886 
-0.536991 -0.558561 -0.560891 -0.556596 -0.549273 -0.549239 -0.553816 -0.53902 -0.533371 
-0.556723 -0.55669 -0.555111 -0.553016 -0.551436 -0.551404 -0.549309 -0.549277 -0.549244 
-0.549211 -0.547633 -0.545539 -0.545507 -0.541868 -0.53823 -0.535107 -0.531073 -0.537732 
-0.534584 -0.537923 -0.546214 -0.540941 -0.540454 -0.542537 -0.538805 -0.541832 -0.551922 
-0.54974 -0.574227 0.173582 0.16855 -0.62655 -0.635698 0.170648 0.165543 -0.612848 
-0.621772 -0.634809 0.169377 0.165859 -0.619108 -0.616188 -0.644686 -0.632557 -0.642557 
-0.6495 -0.596071 -0.62602 -0.623179 -0.598344 -0.619132 -0.604492 -0.621447 -0.60289 
-0.615871 -0.621077 -0.614199 -0.625664 -0.62662 -0.628996 -0.606836 -0.621135 -0.640343 
-0.623723 -0.608481 -0.626114 -0.618862 -0.624361 -0.625397 -0.626737 -0.631962 -0.629113 
-0.621618 -0.625388 -0.626173 -0.631489 -0.628184 -0.623435 -0.628565 -0.633865 -0.614367 
-0.62145 -0.630956 -0.611497 -0.624997 -0.596379 -0.605583 -0.610896 -0.594902 -0.60921 
-0.584917 -0.590356 -0.603325 -0.595252 -0.604576 -0.597598 -0.606922 -0.197545 -0.581294 
-0.586639 0.812564 0.813459 0.802765 0.792071 -0.201338 -0.212185 -0.579705 -0.588969 
0.798683 0.799374 0.788835 0.783838 -0.205161 -0.217622 -0.593885 -0.60333 0.775997 
0.765303 0.754609 0.743914 0.743777 -0.232975 -0.579007 0.779034 0.768258 0.762753 
0.7519 0.741047 -0.233654 -0.600147 -0.601511 0.743635 0.732532 0.721429 -0.252934 
-0.610906 -0.607869 0.707532 0.691219 0.680202 0.669185 0.658168 -0.263142 -0.600613 
-0.619055 0.694454 0.683518 0.677431 0.67143 0.655397 -0.603052 -0.621527 0.632445 
0.626092 0.619574 0.613121 -0.620569 -0.600207 -0.601571 0.774045 0.759324 0.75934 
0.634276 0.618862 0.616803 -0.582181 -0.591626 0.585329 -0.590052 0.766637 -0.567685 
-0.580516 0.715337 0.714666 -0.582831 0.720822 0.714777 0.71422 0.713807 0.713014 
0.455994 0.454815 0.446961 0.432608 0.415504 0.401727 0.388259 -0.51061 0.728841 
0.70671 0.695435 0.679122 0.672884 0.453264 0.452022 0.43769 0.420703 0.412753 
0.398997 0.388143 0.314157 0.27721 0.658772 0.633226 0.617771 0.602481 0.396267 
0.382837 0.37456 0.366261 0.240765 -0.549089 -0.55659 -0.611821 0.595168 0.583978 
0.546364 0.33264 0.322792 -0.557397 -0.610092 0.605678 0.598723 0.582774 0.567006 
0.543571 0.359053 0.344789 0.340842 0.339207 0.326984 0.314761 -0.581507 -0.64629 
-0.637444 0.529675 0.522402 0.511213 0.500024 0.299464 0.287241 0.272902 0.262795 
0.250572 -0.601837 -0.674855 -0.649653 0.563884 0.547773 0.531851 0.512119 0.48957 
0.291891 0.277769 0.26785 0.25583 0.243809 -0.642709 0.472015 0.45747 0.443096 
0.435263 0.42416 0.220653 0.21365 0.201823 0.19132 0.179398 -0.658106 0.425515 
0.417167 0.399471 0.388019 0.382255 0.367802 0.353662 0.163368 0.150526 0.137873 
0.126236 0.115329 -0.666199 0.435673 0.420581 0.408754 0.393946 0.379328 0.359569 
0.15822 0.146583 0.135842 0.124912 0.112378 0.336449 0.320368 0.311265 0.299903 
0.288541 0.0988725 0.0874674 0.0754468 0.0637444 0.0520822 -0.693868 -0.694108 0.338561 
0.326924 0.315287 0.303649 0.292012 0.0982869 0.0849349 0.072423 0.0610017 0.0489815 
-0.646992 -0.679567 -0.679732 0.275391 0.261975 0.252306 0.244309 -0.676806 -0.677092 
0.236392 0.224273 0.212153 0.201528 0.190696 -0.601866 -0.667553 -0.668096 0.231639 
0.221224 0.207598 0.20139 0.190382 -0.0363435 -0.605048 -0.654542 0.172168 0.162154 
0.150731 0.138082 0.124542 -0.579738 -0.597238 -0.668261 0.148352 0.141448 0.130289 
0.120558 -0.0959118 -0.108897 -0.572648 -0.595165 -0.64987 0.103668 0.0920088 0.0796825 
0.0677131 0.0547764 -0.169305 -0.211526 -0.645688 -0.652685 0.0401196 0.0273625 0.0146916 
0.00280981 -0.00884629 -0.244322 -0.260602 -0.27714 -0.633121 -0.654612 0.0374661 0.0241169 
0.0109072 -0.002315 -0.0144724 -0.263977 -0.269584 -0.277775 -0.651449 -0.0336792 -0.0466094 
-0.0592899 -0.0708711 -0.0820773 -0.647468 -0.648151 -0.643858 -0.0263839 -0.0388835 -0.0514087 
-0.0659774 -0.0788524 -0.325844 -0.342997 -0.356848 -0.394681 -0.650419 -0.636435 -0.104559 
-0.120729 -0.13557 -0.150412 -0.161448 -0.436431 -0.418868 -0.637188 -0.643321 -0.177653 
-0.19867 -0.216001 -0.230998 -0.245994 -0.649034 -0.64459 -0.64532 -0.641092 -0.187562 
-0.214601 -0.235859 -0.254898 -0.264671 -0.478109 -0.477658 -0.642111 -0.670323 -0.649037 
-0.277887 -0.293362 -0.305308 -0.310028 -0.317867 -0.639584 -0.291849 -0.304246 -0.320057 
-0.331938 -0.351678 -0.559914 -0.568183 -0.554484 -0.642488 -0.375784 -0.387277 -0.40775 
-0.414063 -0.415557 -0.563124 -0.560358 -0.573343 -0.638243 -0.644663 -0.64014 -0.459719 
-0.481232 -0.491685 -0.485284 -0.489806 -0.596998 -0.61072 -0.635882 -0.642183 -0.48112 
-0.502971 -0.507487 -0.511688 -0.521716 -0.588871 -0.602339 -0.638833 -0.629243 -0.557335 
-0.574054 -0.590774 -0.614823 -0.609667 -0.597887 -0.61832 -0.624763 -0.641784 -0.575286 
-0.592397 -0.609508 -0.621014 -0.615627 -0.64831 -0.660533 -0.666857 -0.642927 -0.699369 
-0.632451 -0.639162 -0.645667 -0.652207 -0.635551 -0.647878 -0.627525 -0.645311 -0.651416 
-0.646571 -0.660768 -0.632527 -0.664063 -0.646935 -0.668173 0.581758 0.567067 0.592753 
1.04933 1.05013 1.02812 1.05192 1.02115 1.00828 1.06172 1.04862 1.04482 
1.01356 1.03223 1.0307 0.845853 0.839605 1.03619 0.834323 0.836018 1.04195 
0.809259 1.02475 1.02154 0.786428 0.977102 0.823778 0.803335 0.790113 0.827869 
0.807079 0.793736 0.998949 0.797546 0.984261 0.995901 0.821094 0.814886 0.794158 
0.993113 0.981286 1.00111 0.817706 0.804238 0.783667 1.04202 1.04324 1.00596 
1.00192 0.808047 0.787383 0.652706 1.06484 1.02884 1.04866 1.01099 0.990913 
0.776954 0.62695 0.760062 0.746961 0.733859 0.670013 0.651427 0.63867 0.62084 
0.718267 0.705394 0.692521 0.673732 0.715671 0.708794 0.696037 0.671943 0.665073 
0.7382 0.731907 0.719581 0.656251 0.741133 0.73471 0.71648 0.647702 0.635272 
0.762685 0.73819 0.634267 0.627095 0.604874 0.597598 0.585375 0.797238 0.791488 
0.589706 0.587015 0.5793 0.56687 0.775049 0.591449 0.579226 0.576173 1.37967 
1.23602 0.956423 0.93517 0.864712 0.81711 0.785124 0.568487 0.565258 1.37413 
0.961672 0.940026 0.574642 0.954607 0.925011 0.886804 0.873461 0.581065 0.573263 
0.565048 0.92156 0.570025 0.561782 0.935211 0.553913 1.07154 0.983764 0.94063 
0.900934 0.871242 0.568234 0.546897 0.538481 1.00681 1.00253 0.928175 0.897482 
0.875673 0.564968 0.553152 0.880309 0.891159 0.885353 0.55471 0.855241 0.857178 
0.820675 0.799952 0.772839 0.561256 0.547534 0.533813 0.851822 0.853694 0.824637 
0.80382 0.743837 0.552786 0.539193 0.525601 0.740456 0.715357 0.690936 0.678506 
0.559339 0.555855 0.537771 0.60723 0.564367 -0.718499 -0.6974 -0.677522 -0.673929 
-0.662975 -0.661639 -0.693447 -0.723016 -0.689683 -0.701642 -0.697402 -0.69355 -0.6738 
-0.645854 -0.661837 -0.670247 -0.670953 -0.672964 -0.658413 -0.661394 -0.66239 -0.636207 
-0.646678 -0.642032 -0.665559 -0.652482 -0.669011 -0.64137 -0.635219 -0.636772 -0.638111 
-0.624539 -0.63334 -0.602995 -0.612306 -0.62865 -0.614398 -0.631117 -0.632762 -0.604184 
-0.627841 -0.591951 -0.630317 -0.631999 -0.58232 -0.619627 -0.574196 -0.597782 -0.600174 
-0.592341 -0.587941 -0.572755 -0.599042 -0.576961 -0.581167 -0.634155 -0.64256 -0.652344 
-0.647592 -0.642909 -0.643869 -0.644927 -0.626402 -0.661498 -0.65635 -0.651244 -0.617096 
-0.618286 -0.62861 -0.605619 -0.615943 -0.621703 -0.618314 -0.61724 -0.618451 -0.623667 
-0.624702 -0.630172 -0.631907 -0.6282 -0.633836 -0.634798 -0.635775 -0.636487 -0.618052 
-0.618938 -0.619946 -0.639506 -0.631995 -0.620653 -0.617672 -0.614983 -0.616097 -0.617007 
-0.618037 -0.616985 -0.621639 -0.622492 -0.611493 -0.616112 -0.617275 -0.614247 -0.61543 
-0.6127 -0.613822 -0.618254 -0.615555 -0.616522 -0.617328 -0.614784 -0.615608 -0.613357 
-0.611244 -0.616592 -0.620707 -0.6182 -0.612515 -0.606883 -0.607479 -0.611164 -0.611586 
-0.61237 -0.615872 -0.605518 -0.608829 -0.614819 -0.615758 -0.621701 -0.605227 -0.606077 