# vtk DataFile Version 4.2
vtk output
ASCII
DATASET POLYDATA
POINTS 7302 float
-4.18885 1.57922 0.967621 -4.22607 1.69287 0.977839 -4.04159 1.62459 0.931052 
-3.81047 1.53316 0.872391 -3.47711 1.4051 0.787806 -4.24458 -2.33546 0.936507 
-4.07365 1.5317 0.924336 -3.63129 1.46575 0.814602 -3.49808 1.41667 0.78133 
-3.30705 1.36367 0.733752 -3.28479 1.36516 0.728268 -3.30691 1.38835 0.733909 
-4.24031 -2.33538 0.920835 -4.06955 1.53177 0.909276 -3.62768 1.46582 0.801361 
-3.49462 1.41673 0.768638 -3.34931 1.37323 0.73298 -3.3038 1.36373 0.721846 
-3.28157 1.36522 0.716453 -3.30366 1.38841 0.722003 -4.19817 -2.31252 0.89628 
-3.99467 1.48607 0.876932 -3.5964 1.45291 0.7814 -3.46681 1.40528 0.750031 
-3.36933 1.37185 0.726453 -4.19394 -2.31244 0.880763 -3.99064 1.48614 0.862164 
-3.53975 1.42808 0.75559 -3.43795 1.3933 0.731361 -4.2275 -2.33516 0.873818 
-4.09276 1.5157 0.872197 -4.02197 1.5013 0.855697 -3.88643 1.5777 0.824906 
-3.79136 1.54797 0.802668 -4.28063 1.59697 0.901322 -4.08853 1.53154 0.857091 
-4.44739 1.84095 0.94115 -4.27627 1.59705 0.885321 -4.19681 1.57969 0.867409 
-1.98283 1.33606 0.370154 -1.98938 1.34862 0.371717 -2.01023 1.37389 0.376576 
-2.0102 1.38076 0.37662 -4.35338 1.63166 0.887497 -4.23107 1.59627 0.860335 
-3.81085 1.54809 0.767574 -3.69078 1.50615 0.740857 -2.05821 1.35404 0.380746 
-2.04279 1.34802 0.377311 -2.02847 1.3428 0.374123 -2.02843 1.34975 0.374167 
-2.02839 1.3567 0.374211 -2.01517 1.3522 0.371271 -2.01514 1.35909 0.371315 
-4.15097 1.54773 0.827765 -4.22676 1.59635 0.844503 -3.74661 1.50554 0.740117 
-3.68716 1.49213 0.727174 -2.05635 1.35407 0.373918 -2.05631 1.36115 0.373963 
-2.04859 1.36164 0.3723 -2.04087 1.36207 0.370636 -2.03424 1.36338 0.369216 
-2.03421 1.37037 0.36926 -2.03417 1.37735 0.369304 -4.30273 1.61409 0.845831 
-4.22244 1.59642 0.828671 -3.7725 1.51936 0.73267 -3.6549 1.47883 0.707425 
-2.09962 1.35592 0.376676 -2.09191 1.35681 0.375047 -2.09187 1.36404 0.375093 
-2.07644 1.36555 0.371833 -4.29832 1.61416 0.829665 -4.21813 1.5965 0.812839 
-3.76869 1.51943 0.718707 -3.6227 1.46552 0.687913 -2.19436 1.38198 0.389973 
-2.18665 1.38351 0.388381 -2.17785 1.3841 0.386553 -2.16138 1.37839 0.383082 
-2.14491 1.37254 0.37961 -2.15254 1.3863 0.381301 -2.14483 1.38749 0.379706 
-2.13603 1.38771 0.377875 -4.37831 1.65018 0.831006 -4.29382 1.631 0.813606 
-3.76488 1.5195 0.704744 -3.64755 1.47896 0.680477 -2.20109 1.38901 0.384395 
-2.20104 1.39673 0.384444 -2.201 1.40446 0.384493 -2.18455 1.39886 0.381092 
-2.17576 1.39937 0.3793 -2.16697 1.3998 0.377508 -2.16692 1.40738 0.377556 
-4.2501 1.59751 0.789313 -4.28942 1.63107 0.79744 -4.02386 1.62622 0.744215 
-3.95372 1.60923 0.730039 -2.28131 1.39804 0.393484 -2.27143 1.39851 0.391508 
-2.26265 1.39974 0.389758 -2.2626 1.40774 0.389809 -2.26255 1.41574 0.38986 
-2.26251 1.42374 0.389911 -2.24389 1.41696 0.386131 -4.32675 1.6152 0.789352 
-4.05483 1.62669 0.736046 -3.94978 1.59399 0.715174 -3.81951 1.56341 0.689366 
-3.75711 1.54858 0.677003 -3.72751 1.54891 0.671194 -3.69791 1.54899 0.665383 
-2.26936 1.3905 0.383701 -2.27914 1.40616 0.385738 -2.27909 1.41424 0.385789 
-2.26923 1.41462 0.383855 -2.279 1.4304 0.385892 -4.3224 1.59835 0.772904 
-4.28079 1.59772 0.764895 -4.01574 1.61076 0.713996 -3.87914 1.56327 0.68736 
-3.7239 1.52029 0.657171 -3.72382 1.53463 0.657263 -3.72374 1.54898 0.657354 
-3.75314 1.57759 0.663224 -2.29583 1.3716 0.381302 -4.68129 1.75074 0.826166 
-4.58407 1.72812 0.807679 -3.94182 1.57883 0.685542 -3.81192 1.53407 0.660732 
-2.38526 1.42318 0.391067 -2.38521 1.43174 0.391122 -4.53255 1.69044 0.781318 
-4.53245 1.70833 0.781432 -4.00753 1.6109 0.683877 -3.90502 1.57906 0.66473 
-3.87073 1.65351 0.658957 -4.35149 1.61642 0.731681 -4.30894 1.61552 0.723994 
-3.93377 1.57897 0.656008 -3.80417 1.53421 0.632285 -2.48083 1.4796 0.393028 
-4.57011 1.6741 0.754969 -4.34709 1.59938 0.715054 -4.10813 1.64498 0.673212 
-3.99932 1.61105 0.653757 -3.89704 1.5792 0.63547 -2.5889 1.41819 0.403389 
-2.58884 1.42766 0.403449 -2.57576 1.42829 0.401144 -2.53879 1.41249 0.394502 
-2.53874 1.42175 0.394561 -2.53869 1.431 0.39462 -2.52669 1.43194 0.39251 
-2.51361 1.43202 0.390202 -2.51356 1.44117 0.39026 -2.51351 1.45032 0.390319 
-2.51346 1.45946 0.390377 -4.56535 1.67418 0.737514 -4.34258 1.59946 0.698536 
-4.17892 1.66282 0.670767 -3.85948 1.54861 0.614822 -3.79641 1.53434 0.603838 
-2.59942 1.42696 0.396557 -2.58635 1.4277 0.394308 -2.57328 1.42833 0.392058 
-2.53636 1.41253 0.385572 -2.51136 1.40462 0.381202 -2.51131 1.41377 0.38126 
-2.49933 1.4146 0.379199 -2.48735 1.41533 0.377138 -2.4873 1.42437 0.377195 
-2.48725 1.43342 0.377253 -2.49912 1.45098 0.379431 -2.511 1.46865 0.381609 
-2.51095 1.4778 0.381668 -4.60833 1.69398 0.728248 -4.33808 1.59954 0.682018 
-3.85561 1.53366 0.600238 -2.69265 1.42139 0.403451 -2.69259 1.43134 0.403514 
-2.69253 1.44129 0.403578 -2.67839 1.44202 0.4012 -2.66425 1.44264 0.398822 
-2.65119 1.44384 0.396631 -2.71925 1.44019 0.398797 -2.71919 1.45026 0.398861 
-2.71914 1.46034 0.398925 -2.66172 1.43286 0.38928 -2.63461 1.42485 0.384762 
-2.6075 1.4166 0.380243 -2.62152 1.43559 0.382687 -2.71694 1.37978 0.38869 
-2.71689 1.38985 0.388754 -2.73088 1.40871 0.391138 -2.74596 1.42837 0.3937 
-2.76104 1.44816 0.396264 -2.73071 1.43912 0.391331 -2.67336 1.41246 0.381934 
-2.83675 1.3808 0.398132 -2.82157 1.38249 0.395769 -2.82151 1.39303 0.395837 
-2.80525 1.39387 0.393299 -2.77387 1.38545 0.388329 -2.75869 1.38659 0.385963 
-2.74351 1.3876 0.383596 -2.83396 1.38085 0.387894 -2.8339 1.39147 0.387962 
-2.83384 1.40208 0.388029 -2.83378 1.41269 0.388097 -2.83372 1.4233 0.388165 
-2.80238 1.41487 0.383327 -2.77103 1.40617 0.378488 -3.08077 1.41005 0.414892 
-3.06131 1.41113 0.412012 -3.04184 1.41204 0.409131 -3.02345 1.41338 0.406413 
-2.98566 1.40368 0.400737 -2.95003 1.39486 0.395388 -2.94997 1.40599 0.395459 
-2.93266 1.40723 0.392901 -2.91535 1.40831 0.390341 -2.91529 1.41929 0.390411 
-4.06893 1.53323 0.396933 -3.99642 1.51802 0.389348 -4.10583 1.6149 0.401307 
-4.18347 1.66646 0.409674 -4.30689 1.73962 0.422913 -3.61176 1.57894 0.350095 
-3.58294 1.57849 0.347119 -3.58286 1.59258 0.347209 -3.5551 1.5923 0.344344 
-3.52735 1.59178 0.341477 -3.50066 1.59157 0.338723 -3.47398 1.59112 0.335968 
-3.44836 1.59101 0.333324 -3.3972 1.57684 0.327948 -4.38929 1.63759 0.414116 
-4.26106 1.6865 0.401762 -4.21948 1.68484 0.397635 -4.30234 1.7397 0.406217 
-3.60802 1.57901 0.336379 -3.57923 1.57856 0.333526 -3.57915 1.59265 0.333616 
-3.52379 1.578 0.328034 -3.47055 1.56397 0.322668 -3.44496 1.56409 0.320136 
-3.44489 1.57758 0.320221 -3.4193 1.57735 0.317687 -3.39371 1.5769 0.315151 
-3.75456 1.37175 0.335479 -3.46744 1.48241 0.309021 -3.46736 1.49601 0.309108 
-3.4418 1.49669 0.306689 -3.12045 1.44263 0.275851 -3.12039 1.45469 0.275928 
-3.07997 1.44431 0.272024 -3.10008 1.4675 0.274091 -3.14035 1.50227 0.278149 
-4.61463 1.53038 0.400508 -4.51793 1.51261 0.391622 -4.51782 1.53091 0.391739 
-4.47101 1.53114 0.387499 -3.15857 1.4776 0.268196 -3.1585 1.48984 0.268274 
-3.15843 1.50209 0.268352 -3.13716 1.50233 0.266426 -4.20765 1.41411 0.346891 
-3.91069 1.31608 0.320553 -3.74733 1.26773 0.306103 -3.74724 1.28261 0.306198 
-3.21983 1.53846 0.262371 -3.21975 1.55099 0.262451 -3.15508 1.52663 0.256694 
-3.21961 1.57606 0.26261 -3.1307 1.5146 0.243057 -3.21632 1.57612 0.250517 
-2.47107 1.42373 0.188201 -3.06727 1.48018 0.2264 -3.23521 1.58898 0.240241 
-2.44431 1.41558 0.177366 -3.0441 1.46874 0.21338 -3.23189 1.58904 0.228052 
-2.43042 1.38921 0.167564 -2.41983 1.39074 0.166792 -2.40593 1.37357 0.157194 
-2.39429 1.37424 0.156389 -2.37096 1.35045 0.146279 -2.35934 1.35098 0.145524 
-2.34658 1.3348 0.136339 -2.33602 1.33598 0.135703 -2.37807 1.34786 0.0961678 
-2.98822 1.4468 0.0763058 -2.90721 1.60892 0.0537471 -2.87486 1.57495 -0.00116852 
-2.87479 1.58624 -0.00109663 -2.92545 1.61017 -0.0125272 -2.90788 1.61013 -0.0123015 
-2.94094 1.6224 -0.0239004 -2.90487 1.61018 -0.0233529 -3.03468 1.46827 -0.0381801 
-2.93788 1.62246 -0.0351118 -2.84945 1.5755 -0.0334814 -3.07155 1.49138 -0.0507229 
-2.93483 1.62251 -0.0463231 -2.86292 1.58645 -0.0446625 -3.04782 1.47961 -0.0619813 
-2.89589 1.59889 -0.0565802 -2.85995 1.5865 -0.0555539 -2.89288 1.59894 -0.0676316 
-2.85698 1.58655 -0.0664454 -3.08228 1.51572 -0.0868274 -2.87146 1.58682 -0.0780277 
-2.83477 1.56455 -0.0876446 -2.8347 1.57576 -0.0875732 -3.03504 1.47984 -0.108875 
-3.05538 1.50391 -0.109718 -2.97579 1.63623 -0.105037 -2.90125 1.59907 -0.101634 
-2.97381 1.43431 -0.117786 -2.8809 1.5877 -0.11191 -2.79525 1.54232 -0.107627 
-2.95134 1.42322 -0.128199 -2.84227 1.56424 -0.121047 -2.75977 1.52072 -0.116545 
-2.91163 1.40216 -0.137421 -2.78949 1.53137 -0.129033 -2.70914 1.48897 -0.124281 
-2.73786 1.49917 -0.136635 -2.66166 1.45925 -0.131779 -2.98058 1.44568 -0.164948 
-2.73501 1.49922 -0.147083 -2.70077 1.47844 -0.155268 -2.78539 1.52022 -0.205308 
-2.78246 1.52027 -0.216049 -2.79662 1.53159 -0.228497 -2.82681 1.55351 -0.242783 
-4.26219 -1.9202 -0.472337 -4.35169 -1.94558 -0.483444 -4.25825 -2.06485 -0.490713 
-4.3024 -2.06991 -0.496358 -4.34755 -2.07508 -0.502131 -4.28449 1.0959 -0.476193 
-3.83139 -2.51507 -0.455014 -3.8313 -2.49899 -0.454911 -3.83121 -2.48291 -0.454809 
-3.79693 -2.44249 -0.450059 -3.83103 -2.45074 -0.454604 -4.08723 -2.06313 -0.486224 
-4.12732 -2.06783 -0.491539 -4.16841 -2.07269 -0.496987 -4.1683 -2.055 -0.496875 
-4.2104 -2.05982 -0.502455 -4.27978 1.07768 -0.493965 -4.23569 1.08308 -0.488117 
-3.86131 -2.53982 -0.475336 -3.86122 -2.52357 -0.475233 -3.86113 -2.50733 -0.475129 
-3.86103 -2.49109 -0.475026 -3.8268 -2.45067 -0.470121 -4.08268 -2.06305 -0.50292 
-4.08258 -2.04575 -0.50281 -4.00422 -1.98592 -0.491766 -4.04325 -1.99006 -0.497124 
-4.12242 -2.01527 -0.508084 -4.36574 1.12275 -0.523774 -4.23083 1.10125 -0.505456 
-4.1049 1.0812 -0.48836 -4.02592 1.07441 -0.477604 -3.82429 -2.75616 -0.487584 
-3.8242 -2.74008 -0.487481 -4.00043 -2.10439 -0.508861 -4.00034 -2.08745 -0.508753 
[...]
POINT_DATA 7302
SCALARS z_coord float
LOOKUP_TABLE default
0.967621 0.977839 0.931052 0.872391 0.787806 0.936507 0.924336 0.814602 0.78133 
0.733752 0.728268 0.733909 0.920835 0.909276 0.801361 0.768638 0.73298 0.721846 
0.716453 0.722003 0.89628 0.876932 0.7814 0.750031 0.726453 0.880763 0.862164 
0.75559 0.731361 0.873818 0.872197 0.855697 0.824906 0.802668 0.901322 0.857091 
0.94115 0.885321 0.867409 0.370154 0.371717 0.376576 0.37662 0.887497 0.860335 
0.767574 0.740857 0.380746 0.377311 0.374123 0.374167 0.374211 0.371271 0.371315 
0.827765 0.844503 0.740117 0.727174 0.373918 0.373963 0.3723 0.370636 0.369216 
0.36926 0.369304 0.845831 0.828671 0.73267 0.707425 0.376676 0.375047 0.375093 
0.371833 0.829665 0.812839 0.718707 0.687913 0.389973 0.388381 0.386553 0.383082 
0.37961 0.381301 0.379706 0.377875 0.831006 0.813606 0.704744 0.680477 0.384395 
0.384444 0.384493 0.381092 0.3793 0.377508 0.377556 0.789313 0.79744 0.744215 
0.730039 0.393484 0.391508 0.389758 0.389809 0.38986 0.389911 0.386131 0.789352 
0.736046 0.715174 0.689366 0.677003 0.671194 0.665383 0.383701 0.385738 0.385789 
0.383855 0.385892 0.772904 0.764895 0.713996 0.68736 0.657171 0.657263 0.657354 
0.663224 0.381302 0.826166 0.807679 0.685542 0.660732 0.391067 0.391122 0.781318 
0.781432 0.683877 0.66473 0.658957 0.731681 0.723994 0.656008 0.632285 0.393028 
0.754969 0.715054 0.673212 0.653757 0.63547 0.403389 0.403449 0.401144 0.394502 
0.394561 0.39462 0.39251 0.390202 0.39026 0.390319 0.390377 0.737514 0.698536 
0.670767 0.614822 0.603838 0.396557 0.394308 0.392058 0.385572 0.381202 0.38126 
0.379199 0.377138 0.377195 0.377253 0.379431 0.381609 0.381668 0.728248 0.682018 
0.600238 0.403451 0.403514 0.403578 0.4012 0.398822 0.396631 0.398797 0.398861 
0.398925 0.38928 0.384762 0.380243 0.382687 0.38869 0.388754 0.391138 0.3937 
0.396264 0.391331 0.381934 0.398132 0.395769 0.395837 0.393299 0.388329 0.385963 
0.383596 0.387894 0.387962 0.388029 0.388097 0.388165 0.383327 0.378488 0.414892 
0.412012 0.409131 0.406413 0.400737 0.395388 0.395459 0.392901 0.390341 0.390411 
0.396933 0.389348 0.401307 0.409674 0.422913 0.350095 0.347119 0.347209 0.344344 
0.341477 0.338723 0.335968 0.333324 0.327948 0.414116 0.401762 0.397635 0.406217 
0.336379 0.333526 0.333616 0.328034 0.322668 0.320136 0.320221 0.317687 0.315151 
0.335479 0.309021 0.309108 0.306689 0.275851 0.275928 0.272024 0.274091 0.278149 
0.400508 0.391622 0.391739 0.387499 0.268196 0.268274 0.268352 0.266426 0.346891 
0.320553 0.306103 0.306198 0.262371 0.262451 0.256694 0.26261 0.243057 0.250517 
0.188201 0.2264 0.240241 0.177366 0.21338 0.228052 0.167564 0.166792 0.157194 
0.156389 0.146279 0.145524 0.136339 0.135703 0.0961678 0.0763058 0.0537471 -0.00116852 
-0.00109663 -0.0125272 -0.0123015 -0.0239004 -0.0233529 -0.0381801 -0.0351118 -0.0334814 -0.0507229 
-0.0463231 -0.0446625 -0.0619813 -0.0565802 -0.0555539 -0.0676316 -0.0664454 -0.0868274 -0.0780277 
-0.0876446 -0.0875732 -0.108875 -0.109718 -0.105037 -0.101634 -0.117786 -0.11191 -0.107627 
-0.128199 -0.121047 -0.116545 -0.137421 -0.129033 -0.124281 -0.136635 -0.131779 -0.164948 
-0.147083 -0.155268 -0.205308 -0.216049 -0.228497 -0.242783 -0.472337 -0.483444 -0.490713 
-0.496358 -0.502131 -0.476193 -0.455014 -0.454911 -0.454809 -0.450059 -0.454604 -0.486224 
-0.491539 -0.496987 -0.496875 -0.502455 -0.493965 -0.488117 -0.475336 -0.475233 -0.475129 
-0.475026 -0.470121 -0.50292 -0.50281 -0.491766 -0.497124 -0.508084 -0.523774 -0.505456 
-0.48836 -0.477604 -0.487584 -0.487481 -0.508861 -0.508753 -0.514296 -0.519837 -0.514078 
-0.522911 -0.510952 -0.499555 -0.322179 -0.503203 -0.514981 -0.520265 -0.520159 -0.520052 
-0.519945 -0.519839 -0.519732 -0.525308 -0.528018 -0.522006 -0.524009 -0.536538 -0.536431 
-0.542187 -0.542079 -0.541971 -0.519352 -0.514008 -0.52454 -0.534442 -0.539784 -0.545285 
-0.54518 -0.545076 -0.541522 -0.5473 -0.541313 -0.547089 -0.539157 -0.549958 -0.544256 
-0.549754 -0.561012 -0.555146 -0.560124 -0.565783 -0.571439 -0.571335 -0.570611 -0.533917 
-0.38951 -0.369472 -0.364302 -0.39751 -0.399904 -0.379993 -0.374682 -0.552565 -0.377313 
-0.377246 -0.470532 -0.466673 -0.384813 -0.382073 -0.581632 -0.478846 -0.478767 -0.423728 
-0.389616 -0.38955 -0.503041 -0.483109 -0.479251 -0.479172 -0.399589 -0.399523 -0.523974 
-0.498729 -0.490909 -0.494701 -0.502554 -0.490285 -0.494072 -0.497858 -0.490051 -0.48611 
-0.486033 -0.485955 -0.482209 -0.482133 -0.482056 -0.478312 -0.480673 -0.409627 -0.564791 
-0.540926 -0.518968 -0.514728 -0.522965 -0.526831 -0.522398 -0.514009 -0.509776 -0.505742 
-0.505664 -0.501632 -0.501554 -0.493769 -0.493692 -0.493615 -0.504013 -0.503935 -0.433951 
-0.548908 -0.539708 -0.539626 -0.505175 -0.505098 -0.505021 -0.504945 -0.504868 -0.45385 
-0.450562 -0.447476 -0.570824 -0.547536 -0.543105 -0.504957 -0.504882 -0.508731 -0.516504 
-0.512504 -0.516351 -0.520196 -0.520119 -0.524169 -0.511589 -0.511512 -0.464372 -0.464302 
-0.457855 -0.550849 -0.568974 -0.564235 -0.535906 -0.540046 -0.527449 -0.53981 -0.557226 
-0.471527 -0.464938 -0.472089 -0.465789 -0.492424 -0.485551 -0.616241 -0.59138 -0.495926 
-0.495858 -0.485933 -0.571243 -0.562437 -0.554093 -0.50989 -0.476389 -0.596384 -0.587168 
-0.565305 -0.561014 -0.540962 -0.499383 -0.492789 -0.486367 -0.480011 -0.47389 -0.544063 
-0.528954 -0.543222 -0.535611 -0.527807 -0.53121 -0.552352 -0.5485 -0.537585 -0.53752 
-0.527114 -0.523771 -0.562526 -0.558605 -0.55109 -0.547363 -0.536771 -0.568511 -0.557207 
-0.549825 -0.586328 -0.578549 -0.570772 -0.588655 -0.576959 -0.579103 -0.557468 -0.574068 
-0.581552 -0.577575 -0.56326 -0.579788 -0.557806 -0.557747 -0.547207 -0.531618 -0.549338 
-0.540055 -0.53137 -0.522686 -0.545526 -0.545471 -0.542394 -0.533577 -0.550739 -0.553751 
-0.550629 -0.55364 -0.56309 -0.562198 -0.568679 -0.558975 -0.565144 -0.571623 -0.580212 
-0.59026 -0.583257 -0.576887 -0.573358 -0.578538 -0.581684 -0.591553 -0.595017 -0.588238 
-0.584982 -0.584926 -0.588069 -0.588013 -0.587957 -0.584701 -0.581127 -0.587788 -0.586929 
-0.590121 -0.596884 -0.603646 -0.603589 -0.603532 -0.599905 -0.599848 -0.599792 -0.599735 
-0.596434 -0.589564 -0.593077 -0.58835 -0.585006 -0.584952 -0.578649 -0.582647 -0.578812 
-0.585574 0.428023 -0.581764 -0.588502 -0.574869 -0.586412 -0.577773 -0.57969 -0.580676 
-0.577944 -0.578812 -0.571527 0.415828 -0.576903 0.396609 0.394776 -0.56601 0.491961 
0.491782 0.429165 0.409636 0.398182 0.388763 0.386793 0.38479 0.382746 0.376584 
0.360994 0.356847 0.348853 0.494948 0.494668 0.427229 0.413348 0.399925 0.388644 
0.381262 0.383044 0.379057 0.369281 0.35796 0.355545 0.347724 0.341464 0.336988 
0.209489 0.198198 0.185923 0.173002 0.495377 0.490624 0.480906 0.471533 0.433213 
0.421836 0.418371 0.417001 0.405508 0.365428 0.359546 0.182399 0.168686 0.144775 
0.134224 0.123279 0.115479 -0.556724 0.500811 0.481926 0.481519 0.431346 0.423925 
0.416504 0.409084 0.403631 0.351414 0.348929 0.130618 0.119873 0.112658 -0.559434 
-0.55713 0.47904 0.467226 0.457866 0.450592 0.441088 0.433852 0.432835 0.352912 
0.345375 0.102852 0.0932822 0.0841903 -0.551419 0.347661 0.340202 0.332742 0.325283 
0.2685 0.0853097 0.0759934 0.0668695 0.0572529 -0.545873 -0.548052 0.333619 0.327685 
0.324957 0.265619 0.0948204 0.0848585 0.0745503 0.0654896 0.0553899 -0.540493 -0.542741 
0.33057 0.329238 0.326428 0.285263 0.277317 0.273479 0.26681 0.259922 0.0532435 
-0.543034 0.333396 0.325781 0.31966 0.277801 0.267443 0.26093 0.253195 0.249022 
0.0611669 0.0506671 -0.541683 0.333506 0.327295 0.317786 0.31305 0.303585 0.294206 
0.287779 0.0479343 -0.544206 0.144892 0.044949 -0.550656 0.136711 0.133049 0.125739 
0.042565 -0.575836 0.117228 0.109846 0.101694 0.0694024 0.061945 -0.582713 0.11273 
0.105951 0.0987499 0.0662134 0.0594921 -0.581026 -0.574361 0.0962053 0.0897373 0.0837095 
0.0720963 0.0651214 0.0574477 0.0876239 0.0809921 0.0763193 0.0864075 0.0797219 0.0728897 
0.070817 0.0634694 0.0564337 0.0689688 0.0621819 0.0548776 0.0594247 0.0534281 0.0461457 
-0.0849468 -0.0898392 -0.09519 -0.100971 -0.107204 0.0445127 0.0365942 0.0287729 -0.0640932 
-0.0683839 -0.0733441 -0.0811179 0.0502695 0.0425354 -0.0670509 -0.0712487 -0.0771871 -0.0851796 
-0.169231 0.024838 -0.0564333 -0.0625708 -0.0721369 -0.0770038 -0.0720159 -0.0767469 0.0458301 
0.037352 0.0440538 -0.0371498 -0.0458974 -0.0539772 -0.194813 0.0419012 -0.0377815 -0.0463398 
-0.0546739 -0.0631415 0.519328 0.481539 0.450944 0.416577 0.0401987 -0.0400691 -0.046773 
-0.119053 -0.122212 -0.204832 0.494879 0.463482 0.425016 0.382992 0.170221 0.163451 
-0.0427792 -0.0475721 -0.0531501 -0.123802 -0.202066 0.558206 0.512662 0.476167 0.430334 
0.407306 -0.0433067 -0.047596 -0.0534411 -0.118482 -0.124165 0.639522 0.578713 0.52221 
0.477712 -0.0445259 -0.0498508 -0.055271 -0.118777 -0.125018 0.617327 0.545449 0.494309 
0.149511 -0.0513294 -0.0566644 -0.120347 -0.126588 0.50338 0.469049 0.158861 0.153456 
-0.122626 -0.128897 0.658198 0.590634 0.533765 0.496445 0.466146 0.162722 0.156308 
0.150852 0.0562493 -0.111006 -0.117246 0.538643 0.513535 0.167164 0.161229 0.155294 
0.149359 -0.0518386 -0.112575 -0.118221 0.584673 0.562046 0.535489 0.506353 0.166284 
-0.11357 -0.123593 0.581377 0.568276 0.536868 0.164178 -0.0210602 -0.0278559 -0.0349317 
-0.0421438 -0.115133 -0.123881 -0.561911 -0.559947 0.578081 0.541719 0.172165 0.041448 
-0.00745256 -0.0155172 -0.0228777 -0.0302093 -0.116697 -0.124243 -0.54184 -0.547439 0.568452 
0.555803 0.521447 0.490044 0.170158 0.0536002 0.00741439 -0.000891216 -0.00918943 -0.125096 
-0.555224 -0.55351 0.55147 0.534831 0.506471 0.487116 0.169866 0.0513791 -0.124784 
-0.561574 -0.548345 0.530738 0.515076 0.488887 0.177043 0.0492271 0.0420427 -0.1257 
-0.560006 -0.558201 0.523039 0.512022 0.501005 0.483078 0.475598 0.177404 0.0471409 
0.0401484 0.00186586 -0.0133674 -0.124683 -0.558672 -0.556761 0.499013 0.498769 0.17594 
0.045015 0.0382866 -0.11076 -0.117786 -0.542158 -0.555283 -0.557308 -0.555291 0.180295 
0.00909787 0.00210344 -0.00524623 -0.112843 -0.118756 -0.540899 0.178832 0.0483921 0.00745051 
0.000467829 -0.114837 -0.120772 0.182483 0.177368 0.0463778 0.00572466 -0.00138081 -0.106618 
-0.110984 -0.545621 -0.555005 0.0519057 0.0448834 0.00399881 -0.108136 -0.113674 0.0507949 
-0.114585 -0.554038 -0.103004 -0.109522 -0.115482 -0.57367 0.179815 -0.104497 -0.111021 
-0.116982 0.422883 0.415605 0.397891 0.177098 -0.108743 -0.113711 -0.561165 -0.563008 
0.404815 0.402746 0.175622 -0.00520397 -0.112572 -0.170031 -0.571322 -0.56917 -0.628082 
-0.59057 0.406925 0.395101 0.390353 0.172941 -0.00696344 -0.17239 -0.573729 -0.571531 
-0.587389 0.411509 0.399701 -0.00172848 -0.0930439 -0.0993148 -0.104421 -0.580193 -0.577738 
-0.589325 -0.593542 -0.601195 0.416004 0.406679 0.394946 0.159463 0.153597 0.148724 
-0.00348789 -0.0935548 -0.100892 -0.582617 -0.57239 -0.587813 -0.579759 -0.590399 0.41725 
0.411144 0.152589 0.146701 0.14039 0.13404 0.128658 -0.0941207 -0.568873 -0.577965 
-0.579879 0.44313 0.428949 0.417424 0.408388 0.401673 0.126355 0.120112 0.114319 
0.108215 0.103081 0.000109963 -0.00669319 -0.0890285 -0.0946606 -0.57116 -0.580252 -0.594171 
0.440815 0.422407 0.415747 0.125262 0.119073 0.113582 0.107436 0.100992 -0.00164086 
-0.00829048 -0.0896005 -0.0951744 -0.573447 -0.58628 -0.589638 0.434595 0.105972 0.100153 
0.094592 -0.0029899 -0.00921948 -0.0802822 -0.0855123 -0.0901465 -0.0961805 -0.575734 -0.577318 
-0.591505 0.428677 0.106101 0.100166 0.0945331 -0.00458593 -0.010914 -0.0865766 -0.0912487 
-0.0972611 -0.570597 -0.575808 -0.593372 0.423138 0.411255 0.397053 0.379016 0.0865782 
0.0808681 0.0751513 0.0691906 0.0632298 0.057269 0.051423 0.0455253 -0.00614721 -0.0124169 
-0.0722627 -0.0772198 -0.081568 -0.0867487 -0.576582 -0.578053 -0.585881 0.394738 0.376757 
0.0440816 -0.00130666 -0.0205989 -0.0270349 -0.033145 -0.0394302 -0.0628975 -0.0680383 -0.0738325 
-0.0787701 -0.572996 -0.593856 0.392423 0.374498 0.0425004 -0.00252528 -0.00908691 -0.0227333 
-0.0275251 -0.0345272 -0.0405147 -0.0691617 -0.0749874 -0.0803205 -0.158147 -0.575214 -0.586662 
0.392501 0.374406 0.359039 -0.00421972 -0.0589955 -0.0644908 -0.0703358 -0.163201 -0.577432 
-0.591397 0.385584 0.367828 0.354874 0.347941 -0.0053441 -0.0119552 -0.0605794 -0.0656843 
-0.0727707 -0.154907 -0.575811 -0.587044 0.0260318 0.0194373 -0.0505369 -0.0555355 -0.0621634 
-0.145522 -0.159063 -0.57517 -0.576556 -0.583019 -0.602383 0.0243792 0.0177099 -0.0282603 
-0.0353881 -0.0420293 -0.0483369 -0.0538566 -0.0596456 -0.581184 -0.582598 -0.587753 -0.604222 
0.0226825 0.0159465 -0.0304174 -0.0367777 -0.0443221 -0.0510237 -0.0566111 -0.152601 -0.583457 
-0.581017 -0.592504 -0.0323464 -0.0387293 -0.161716 -0.589513 -0.591376 0.0189997 -0.0340246 
-0.0403999 -0.158384 -0.166054 -0.591801 -0.586904 -0.613103 -0.0348822 -0.0420706 -0.572204 
-0.577485 -0.585731 -0.608576 -0.581904 -0.591052 -0.581567 -0.601003 -0.584206 -0.593353 
-0.583334 -0.599411 -0.586507 -0.591857 -0.588093 -0.604609 -0.585052 -0.590332 -0.599245 
-0.609446 0.494597 0.485505 0.476413 -0.200195 -0.591109 -0.592605 -0.595902 -0.606151 
0.516475 0.501402 0.495189 0.483218 0.459612 0.453287 0.441652 0.432672 -0.578786 
-0.592005 -0.589626 -0.598718 -0.600681 -0.605006 0.51416 0.499115 0.495752 0.480931 
0.454657 0.448373 0.444563 0.430414 -0.196736 -0.570043 -0.586564 -0.591913 -0.604859 
-0.602519 -0.60347 0.502957 0.493921 0.442276 0.430669 0.416716 -0.566925 -0.568616 
-0.585109 -0.600347 -0.598055 -0.608666 0.509529 0.497433 0.439989 0.425896 0.414471 
-0.569212 -0.570875 -0.594936 -0.592639 -0.593925 -0.604101 0.501345 0.495132 0.412226 
0.0202967 -0.0438916 -0.0510583 -0.0594727 -0.067181 -0.0740215 -0.0797251 -0.0928439 -0.0999374 
-0.107671 -0.115559 -0.202165 -0.588561 -0.592372 0.781015 0.758179 0.493217 0.492831 
0.414815 0.064904 0.0537319 -0.122403 -0.195455 -0.587947 -0.581121 -0.591173 0.856535 
0.783262 0.793516 0.764966 0.488052 0.49338 0.412542 0.062228 0.024121 -0.119069 
-0.133962 -0.206773 -0.580731 -0.590864 -0.58883 -0.592957 0.816885 0.740137 0.744369 
0.735221 0.726073 0.712689 0.703598 0.702754 0.521911 0.503576 0.485807 0.485392 
0.40788 0.0898206 0.079667 0.0702931 0.0598206 -0.0229829 -0.123215 -0.134285 -0.140268 
-0.143577 -0.570977 -0.57247 -0.573461 0.974 0.819505 0.741921 0.519581 0.498355 
0.48644 0.485927 0.0873645 0.0776007 0.0666987 0.0541287 -0.0246232 -0.122102 -0.132793 
-0.137935 -0.141969 -0.210645 -0.572797 -0.571032 -0.57816 -0.588606 0.925252 0.671748 
0.649651 0.644135 0.634629 0.621316 0.608123 0.598739 0.585727 0.533045 0.51107 
0.496082 0.101837 0.0923924 0.0822053 0.0728808 -0.0270403 -0.143313 -0.148254 -0.153981 
-0.157734 -0.187124 -0.201285 0.564732 0.558839 0.392124 0.383143 0.103309 0.0971134 
0.088352 -0.0294962 -0.153065 -0.156772 -0.164007 -0.170309 -0.179568 -0.193359 -0.593826 
0.571711 0.562387 0.549646 0.392141 0.385325 0.102507 0.0939556 0.085292 -0.154922 
-0.157719 -0.164012 -0.172121 -0.181398 -0.188672 -0.19477 0.596628 0.590553 0.588395 
0.385344 0.380832 0.100248 0.0900574 -0.170627 -0.192669 -0.197776 0.614305 0.599879 
0.597712 0.39209 0.385134 0.0979893 0.088209 -0.199597 0.618246 0.60763 0.597013 
0.416937 0.0939962 0.0852359 -0.0287176 0.62045 0.627712 0.625824 0.614187 0.438298 
0.42249 0.0745879 0.626855 0.644463 0.647687 0.640776 0.435738 0.422681 0.0829484 
0.0732527 0.644638 0.637702 0.615531 0.594181 0.568954 0.549065 0.0617821 0.0517084 
0.0427264 0.605405 0.593768 0.58213 0.557568 0.534348 0.649027 0.632402 0.502188 
0.484728 0.477495 -0.0260279 0.647664 0.656216 0.644389 0.47811 0.470803 0.469767 
0.446028 0.435334 0.319382 -0.0271557 -0.662644 0.518811 0.503548 0.499627 0.499493 
0.491374 0.317021 -0.0300496 0.675156 0.658319 0.641903 0.477322 0.455243 0.447217 
0.324237 0.307077 0.294149 0.281462 0.270753 0.261605 0.25385 0.243309 0.234161 
0.225013 0.217035 -0.0330106 0.661926 0.645533 0.634171 0.460419 0.449143 0.444336 
0.348794 0.334199 0.320016 0.306231 0.296402 0.284854 0.268466 0.251535 0.249456 
0.23995 0.227836 0.217208 0.101857 0.0555323 -0.0164885 -0.229637 -0.243416 -0.253588 
0.738409 0.720255 0.713963 0.446307 0.441456 0.209195 0.188005 0.179103 0.168081 
0.157197 0.146504 0.133 0.120365 0.0532454 -0.0184246 -0.155689 -0.169271 -0.182006 
-0.190547 -0.237567 -0.253771 -0.262095 0.723567 0.461479 0.456903 0.438575 0.114547 
0.103143 0.0904385 0.0781994 0.0687179 0.0597332 -0.0218273 -0.272983 -0.281111 -0.289225 
-0.299398 -0.307164 -0.31493 -0.320155 0.500022 0.487799 0.468111 0.452536 0.132835 
0.117733 0.10608 0.06583 0.0574228 -0.0208461 -0.27771 -0.288098 -0.293929 -0.299605 
-0.30514 -0.310546 -0.315685 0.472402 0.464798 0.460349 0.455717 0.340731 0.326206 
0.288233 -0.0239582 -0.335025 -0.344918 -0.349853 -0.351985 -0.364163 -0.373798 0.473108 
0.486763 0.478667 0.481649 0.335913 0.319472 0.284041 0.274212 -0.0258833 -0.389847 
-0.385856 -0.392672 -0.689465 0.465952 0.464856 0.35524 0.303042 0.291397 0.279881 
0.27174 0.26347 -0.0295267 -0.391018 -0.395239 -0.408224 -0.421537 0.37684 0.436098 
0.428629 0.41341 0.270874 0.265916 0.255817 -0.0300409 -0.0738648 -0.0861283 -0.0952762 
-0.105215 -0.117156 -0.128486 -0.140204 -0.152181 -0.163181 -0.426554 0.443818 0.430602 
0.426015 0.408078 0.389635 0.372087 0.271779 0.268462 0.263212 -0.0308008 -0.117662 
-0.129889 -0.142628 -0.154638 -0.168241 -0.422647 0.406426 0.402084 0.413014 0.262295 
0.251679 0.236413 -0.0241312 -0.179287 -0.192162 -0.202192 -0.212223 -0.222254 -0.232285 
-0.244151 -0.25425 -0.262377 -0.270366 0.242642 0.232327 -0.277465 -0.287931 -0.29148 
-0.301722 -0.311964 -0.322205 -0.325085 0.240047 0.231187 -0.291391 -0.302245 -0.310685 
-0.318831 -0.326956 -0.334926 -0.337596 0.403103 0.242069 0.228574 0.216823 0.209162 
-0.348752 -0.359941 -0.362138 -0.364297 -0.372093 -0.385685 -0.409102 0.239418 0.228879 
0.211618 0.202641 -0.351566 -0.362756 -0.377015 -0.375824 -0.380761 -0.394533 -0.405386 
0.410241 0.363881 0.364941 -0.411381 -0.443449 -0.462659 -0.490737 0.397889 0.389024 
0.353612 0.338773 0.207731 0.195093 -0.46958 -0.489487 0.396396 0.392054 0.384527 
0.367564 0.357871 0.345521 0.170309 -0.492486 0.387647 0.383034 0.361711 0.3597 
0.164794 0.392213 0.392154 0.372702 0.361141 0.116031 0.109071 0.463914 0.441262 
0.43167 0.428987 0.424526 0.418363 0.393583 0.389202 0.384029 0.10732 0.0996587 
0.0930604 0.085868 0.0794799 0.392017 0.38449 0.384459 0.0793003 0.0721336 0.0643639 
0.0570076 0.0502458 -0.651097 0.388932 0.378838 0.381663 0.0767062 0.0698659 0.0625882 
0.0555292 0.0487009 0.386163 0.384477 0.385898 0.0468011 0.556716 0.393672 0.393844 
0.387574 0.374064 0.0530873 0.0456296 0.387485 0.379725 0.368905 0.365538 0.360913 
0.36437 0.0519201 0.0363104 0.0290453 -0.616146 0.315262 0.313552 0.308448 0.303146 
0.301155 0.297305 0.0344007 0.0272373 -0.604575 -0.599218 0.31652 0.311437 0.308019 
0.307507 0.298415 0.0326875 0.0254703 -0.593635 -0.591699 0.516887 0.298246 0.280577 
0.276386 0.265847 0.0309376 0.0236866 -0.592288 -0.587385 0.523457 0.330696 0.322336 
0.313976 0.278347 0.272568 0.263588 0.0373805 0.0291279 0.021922 -0.581039 -0.59111 
0.515808 0.515847 0.518092 0.328593 0.316885 0.261329 0.0272893 -0.582823 -0.583945 
0.522898 0.514528 0.508175 0.329909 0.31813 0.25761 -0.580097 0.510613 0.326085 
0.314377 -0.576216 0.507044 0.0460463 0.0373995 0.0292604 -0.56416 -0.565472 0.533464 
0.32682 0.0439792 0.0352861 -0.565894 -0.57279 0.510094 0.50199 0.495956 0.470019 
0.336554 0.324729 0.032756 0.0253912 0.0183862 -0.567629 -0.58014 0.50251 0.498461 
0.474135 0.471851 0.317625 0.309218 0.0309362 0.0236101 0.0167431 -0.0323342 -0.552673 
-0.543393 0.623686 0.497263 0.49125 0.462928 0.460471 0.31551 0.308694 0.269369 
0.0290594 0.021849 0.0151496 -0.0340937 -0.547647 0.493258 0.487121 0.48523 0.472409 
0.463828 0.453594 0.44516 0.438726 0.313396 0.30341 0.293519 0.289658 0.287342 
0.280764 0.267138 0.0201489 0.0134399 -0.560402 1.36525 0.530382 0.496163 0.491714 
0.483637 0.457274 0.4489 0.442577 0.434573 0.428276 0.309667 0.301307 0.291428 