# vtk DataFile Version 4.2
vtk output
ASCII
DATASET POLYDATA
POINTS 7031 float
-4.79672 1.52709 1.06921 -4.64708 1.49178 1.03314 -4.46292 1.47726 0.988967 
-4.41963 1.47821 0.978617 -4.41953 1.49533 0.978726 -4.41944 1.51245 0.978835 
-4.50233 1.5464 0.983149 -4.45798 1.54655 0.972712 -4.45788 1.56386 0.972822 
-4.73012 1.69428 1.00447 -4.77607 1.69601 0.997997 -4.72525 1.69437 0.986613 
-4.77103 1.71483 0.980044 -4.65618 1.71137 0.90497 -4.10431 1.65933 0.789697 
-4.06692 1.65794 0.781904 -4.10413 1.69118 0.7899 -4.75123 1.73391 0.907877 
-4.50997 1.65308 0.857995 -4.69604 1.69488 0.879444 -4.09666 1.53211 0.758162 
-4.09657 1.54803 0.758264 -4.1337 1.58015 0.765943 -4.17083 1.61258 0.773624 
-4.28896 1.68129 0.797803 -4.69138 1.65795 0.861346 -4.59383 1.65553 0.842173 
-4.50077 1.63555 0.823749 -4.28522 1.56408 0.780889 -4.32668 1.59821 0.789286 
-4.41189 1.65119 0.806413 -4.68651 1.65803 0.843485 -4.5421 1.63656 0.815538 
-4.542 1.65445 0.815652 -4.40753 1.61666 0.789497 -2.59222 1.34128 0.368443 
-2.58966 1.35085 0.359308 -2.60257 1.36872 0.361456 -2.60251 1.3783 0.361517 
-2.6001 1.35917 0.352144 -2.61407 1.37779 0.354408 -2.61401 1.38744 0.354469 
-2.61147 1.38748 0.345159 -2.61142 1.39713 0.345221 -2.61137 1.40678 0.345282 
-2.63813 1.4538 0.349592 -2.62407 1.45411 0.347509 -2.62402 1.46382 0.347571 
-2.61098 1.47433 0.345713 -2.59693 1.47427 0.343627 -2.58395 1.47485 0.341706 
-2.57097 1.4753 0.339784 -2.558 1.47565 0.337862 -2.5461 1.47665 0.336103 
-2.52127 1.46829 0.332361 -3.24362 1.45049 0.427881 -3.38353 1.5372 0.448692 
-3.38346 1.55025 0.448776 -2.69281 1.26111 0.347042 -2.59549 1.28256 0.333154 
-2.58252 1.28427 0.331295 -2.59538 1.30174 0.333276 -2.60932 1.31998 0.335418 
-2.60894 1.38753 0.335849 -2.60888 1.39718 0.335911 -2.60883 1.40683 0.335972 
-2.58144 1.47489 0.33251 -2.56848 1.47535 0.330643 -2.55552 1.47569 0.328775 
-2.53073 1.4675 0.325139 -2.51884 1.46834 0.32343 -3.21884 1.43922 0.412786 
-3.35537 1.52412 0.432538 -2.61913 1.42508 0.328593 -2.64572 1.49204 0.332802 
-2.51641 1.46838 0.314499 -2.49164 1.45981 0.310966 -2.45721 1.44401 0.306024 
-2.45716 1.453 0.306082 -2.45711 1.462 0.306139 -3.07217 1.26971 0.380142 
-3.05276 1.27181 0.377514 -3.0527 1.28343 0.377589 -3.03329 1.28528 0.37496 
-2.97736 1.26833 0.367224 -2.99549 1.30038 0.369922 -3.07171 1.35164 0.380664 
-2.4666 1.27098 0.297708 -2.46655 1.28003 0.297766 -2.4665 1.28907 0.297824 
-2.40973 1.42009 0.291031 -2.40968 1.42889 0.291087 -2.40963 1.43769 0.291143 
-3.01221 1.24174 0.361137 -2.97458 1.23452 0.356116 -2.95734 1.2372 0.353859 
-2.95728 1.24841 0.353931 -2.93897 1.25031 0.351527 -2.4417 1.25664 0.285907 
-2.44165 1.26558 0.285964 -2.4416 1.27453 0.286021 -2.3849 1.40366 0.279454 
-2.38486 1.41236 0.27951 -2.38481 1.42105 0.279565 -2.39547 1.43774 0.281093 
-3.10601 1.22998 0.362389 -3.06628 1.22299 0.357256 -3.06621 1.2347 0.35733 
-3.04685 1.23706 0.354869 -2.95458 1.20361 0.342827 -2.91914 1.19737 0.338248 
-2.37181 1.41315 0.269747 -2.38247 1.42979 0.271229 -2.39313 1.44652 0.272711 
-3.60265 1.33862 0.413588 -3.44175 1.30938 0.393455 -2.34922 1.39811 0.258779 
-2.36949 1.42184 0.261457 -2.36944 1.43049 0.261512 -3.68578 1.34721 0.410451 
-3.59887 1.35278 0.400085 -2.36717 1.43053 0.253166 -3.83835 1.35276 0.414604 
-3.71214 1.31615 0.399757 -3.56777 1.27087 0.38275 -3.46082 1.24 0.370169 
-3.86699 1.25872 0.402951 -3.83487 1.26185 0.399393 -3.83479 1.27702 0.39949 
-3.8016 1.27931 0.395807 -3.80152 1.29433 0.395903 -3.80143 1.30934 0.395999 
-3.89718 1.25617 0.391838 -3.76698 1.2227 0.377631 -3.73597 1.22582 0.374325 
-3.76681 1.25246 0.377821 -3.83063 1.30742 0.385053 -3.83054 1.32258 0.38515 
-3.79455 1.12928 0.365873 -3.76357 1.1335 0.362706 -3.73259 1.13743 0.359537 
-3.67178 1.1304 0.353215 -3.64293 1.13443 0.350268 -3.66822 1.08705 0.338976 
-3.61067 1.0814 0.333239 -3.58186 1.08543 0.330415 -3.52644 1.07965 0.324889 
-3.52636 1.09349 0.324978 -3.38653 0.966901 0.272899 -4.60589 1.30573 0.362976 
-3.28778 0.921862 0.251959 -4.48061 1.27535 0.248902 -4.41529 1.26074 0.176355 
-4.41054 1.26082 0.1589 -4.19607 1.20829 0.150981 -3.42459 0.975378 0.0435212 
-3.34521 0.963313 0.0298379 -3.49979 1.18549 0.0320052 -3.47276 1.18877 0.0318961 
-3.49963 1.21367 0.0321849 -3.47261 1.2167 0.0320742 -3.47253 1.23067 0.0321632 
-3.4994 1.25593 0.0324544 -3.22276 1.07705 0.0176064 -3.36556 1.14726 0.0181138 
-3.39033 1.17084 0.0182746 -3.09019 1.01349 0.00533191 -2.99085 0.986272 0.00555567 
-3.04973 1.02176 0.00554613 -3.14998 1.03833 -0.00685605 -3.08375 1.0136 -0.0182976 
-3.04345 1.00981 -0.0178038 -3.02077 0.990089 -0.0292273 -2.98155 0.986437 -0.0285723 
-3.01762 0.990145 -0.0407769 -2.97845 0.986493 -0.0399482 -2.67628 0.980464 -0.0334172 
-3.034 0.997922 -0.0527902 -3.03394 1.00998 -0.0527132 -2.65915 0.974027 -0.0431176 
-2.99182 0.982534 -0.0633257 -3.01126 1.00223 -0.0637999 -2.61333 0.954617 -0.0518888 
-3.04714 1.00576 -0.0767004 -3.02759 1.0101 -0.0759862 -2.63931 0.977907 -0.0625332 
-3.02449 0.998091 -0.0876997 -3.00496 1.00234 -0.0868992 -2.651 0.974171 -0.0730361 
-2.98245 0.9827 -0.0977142 -2.96295 0.986768 -0.0968281 -2.94447 0.991071 -0.0959857 
-2.89019 0.980479 -0.0936538 -2.85433 0.977043 -0.092091 -2.95991 0.975032 -0.108279 
-2.94146 0.97942 -0.107354 -2.90461 0.97615 -0.105581 -2.86879 0.972959 -0.103856 
-2.85136 0.977095 -0.102983 -2.832 0.981553 -0.112975 -2.79827 0.978412 -0.1112 
-2.74924 0.968363 -0.108652 -2.73388 0.972525 -0.107809 -2.71749 0.976097 -0.106916 
-2.88096 1.015 -0.126589 -2.74633 0.979243 -0.119031 -2.73099 0.983334 -0.11812 
-2.71462 0.986829 -0.117154 -4.29836 1.16879 -0.42272 -4.16865 1.14622 -0.408179 
-4.0088 1.11278 -0.390293 -4.38487 1.19728 -0.45097 -3.89296 1.07717 -0.393717 
-3.59375 1.02774 -0.373711 -3.30774 1.14981 -0.574694 -3.16254 1.1035 -0.545289 
-2.59021 1.03501 -0.515253 -2.53388 1.01759 -0.501604 -2.4777 1.02129 -0.498254 
-2.47548 1.41425 -0.495748 -2.46273 1.43542 -0.49247 -2.46268 1.44544 -0.492406 
-2.46262 1.45545 -0.492342 -2.44902 1.45551 -0.488956 -2.44896 1.46546 -0.488893 
-2.42375 1.45669 -0.482662 -2.3995 1.44839 -0.476669 -2.55627 1.0736 -0.528339 
-2.48752 1.04808 -0.511008 -2.44876 1.03775 -0.501219 -2.46055 1.35535 -0.502643 
-2.4605 1.36537 -0.502579 -2.47301 1.38407 -0.505663 -2.46038 1.3854 -0.502451 
-2.46033 1.39541 -0.502387 -2.46027 1.40542 -0.502323 -2.44668 1.40582 -0.498872 
-2.46016 1.42545 -0.502196 -2.44657 1.42572 -0.498745 -2.44651 1.43567 -0.498681 
-2.44646 1.44561 -0.498618 -2.43384 1.44632 -0.49541 -2.43378 1.45621 -0.495347 
-2.42116 1.45673 -0.492141 -2.43347 1.05091 -0.507471 -2.38473 1.10205 -0.494597 
-2.38467 1.1117 -0.494536 -2.38462 1.12135 -0.494474 -2.38456 1.131 -0.494412 
-2.3961 1.14759 -0.497318 -2.38445 1.1503 -0.494289 -2.3844 1.15995 -0.494228 
-2.38434 1.1696 -0.494166 -2.38429 1.17925 -0.494105 -2.39582 1.19612 -0.497009 
-2.40832 1.21371 -0.500159 -2.39571 1.21553 -0.496885 -2.40821 1.23324 -0.500034 
-2.40816 1.24301 -0.499972 -2.43224 1.26841 -0.506084 -2.43219 1.2783 -0.506021 
-2.47075 1.31358 -0.515834 -2.41936 1.31923 -0.502497 -2.40689 1.46767 -0.498539 
-2.39393 1.07969 -0.507116 -2.39388 1.08939 -0.507054 -2.39382 1.0991 -0.506993 
-2.42842 1.48596 -0.514235 -2.40427 1.47749 -0.507901 -2.41577 1.49612 -0.510849 
-2.35573 1.05957 -0.506986 -2.34411 1.06251 -0.503846 -2.35562 1.07863 -0.506865 
-2.33026 1.46086 -0.498185 -2.21113 1.43165 -0.475433 -2.1909 1.42388 -0.469925 
-2.18125 1.42467 -0.467273 -2.17159 1.42536 -0.464622 -2.19921 1.42383 -0.481324 
-2.16077 1.40097 -0.470701 -2.15113 1.40162 -0.468004 -2.14148 1.40217 -0.465308 
-2.39559 1.1944 -0.547405 -2.38301 1.20605 -0.543772 -2.37144 1.20842 -0.540471 
-2.37138 1.21807 -0.540409 -2.35886 1.21965 -0.53684 -2.3588 1.22924 -0.536778 
-2.14878 1.41878 -0.476154 -2.13915 1.41924 -0.473413 -2.36906 1.17952 -0.549965 
-2.14638 1.4445 -0.484249 -2.1003 1.43015 -0.470978 -2.12597 1.42897 -0.487231 
-2.27399 1.15109 -0.541741 -2.2519 1.15522 -0.535102 -2.11387 1.47977 -0.492204 
-2.10317 1.45537 -0.497858 -2.12981 1.4875 -0.505831 -2.13929 1.50454 -0.508644 
-2.21637 1.18015 -0.543001 -2.20578 1.19085 -0.539669 -2.1562 1.33049 -0.523649 
-2.1752 1.35421 -0.529431 -2.18563 1.37129 -0.532585 -2.1751 1.3717 -0.52932 
-2.16538 1.39886 -0.52618 -2.16533 1.40756 -0.526124 -2.16528 1.41625 -0.526069 
-2.15571 1.41699 -0.523098 -2.14709 1.41843 -0.520418 -2.14705 1.42704 -0.520364 
-2.12796 1.41944 -0.514479 -2.10082 1.48055 -0.505783 -2.10934 1.49669 -0.50835 
-2.10929 1.50511 -0.508296 -2.10925 1.51353 -0.508242 -2.1092 1.52196 -0.508189 
-2.10915 1.53038 -0.508135 -2.10054 1.53083 -0.505462 -2.18436 1.1866 -0.542251 
-2.17384 1.1881 -0.538928 -2.15373 1.36513 -0.531774 -2.14512 1.36683 -0.529052 
-2.14507 1.37543 -0.528997 -2.10694 1.53042 -0.516261 -2.09834 1.53087 -0.513547 
-2.09829 1.53925 -0.513494 -2.08874 1.53867 -0.510485 -2.06303 1.52269 -0.502454 
-2.16209 1.17281 -0.544405 -2.15253 1.17487 -0.541333 -2.11421 1.53927 -0.527389 
-2.09613 1.53091 -0.521632 -2.08659 1.53038 -0.518578 -2.06946 1.52259 -0.513123 
-2.05233 1.51463 -0.507669 -2.08431 1.54708 -0.526511 -2.08426 1.55541 -0.526458 
-2.05009 1.53099 -0.51544 -2.05005 1.53915 -0.515388 -2.03389 1.53168 -0.51016 
-2.01773 1.52405 -0.504932 -2.05637 1.55562 -0.525993 -2.03172 1.5398 -0.517905 
-2.05412 1.57207 -0.533804 -2.0295 1.556 -0.5256 -2.01339 1.54813 -0.520218 
-2.01334 1.55613 -0.520167 -2.01119 1.56417 -0.527836 -2.00265 1.5636 -0.524922 
-2.0581 1.6135 -0.552331 -2.04953 1.62138 -0.549323 1.44286 -2.09211 -0.583055 
1.81133 -2.03553 0.251996 1.82452 -2.06145 0.245738 1.44762 -2.08353 -0.585356 
1.44338 -2.08363 -0.594504 1.43288 -2.07076 -0.599805 1.80728 -2.01425 0.248335 
1.81185 -2.0272 0.240758 2.04272 -2.70812 -0.177284 1.45238 -2.07495 -0.587657 
1.44815 -2.07505 -0.596805 1.44391 -2.07515 -0.605953 1.42714 -2.04942 -0.607268 
1.82069 -2.01868 0.247479 1.80779 -2.00597 0.237167 2.19481 -2.67144 0.164322 
[...]
POINT_DATA 7031
SCALARS z_coord float
LOOKUP_TABLE default
1.06921 1.03314 0.988967 0.978617 0.978726 0.978835 0.983149 0.972712 0.972822 
1.00447 0.997997 0.986613 0.980044 0.90497 0.789697 0.781904 0.7899 0.907877 
0.857995 0.879444 0.758162 0.758264 0.765943 0.773624 0.797803 0.861346 0.842173 
0.823749 0.780889 0.789286 0.806413 0.843485 0.815538 0.815652 0.789497 0.368443 
0.359308 0.361456 0.361517 0.352144 0.354408 0.354469 0.345159 0.345221 0.345282 
0.349592 0.347509 0.347571 0.345713 0.343627 0.341706 0.339784 0.337862 0.336103 
0.332361 0.427881 0.448692 0.448776 0.347042 0.333154 0.331295 0.333276 0.335418 
0.335849 0.335911 0.335972 0.33251 0.330643 0.328775 0.325139 0.32343 0.412786 
0.432538 0.328593 0.332802 0.314499 0.310966 0.306024 0.306082 0.306139 0.380142 
0.377514 0.377589 0.37496 0.367224 0.369922 0.380664 0.297708 0.297766 0.297824 
0.291031 0.291087 0.291143 0.361137 0.356116 0.353859 0.353931 0.351527 0.285907 
0.285964 0.286021 0.279454 0.27951 0.279565 0.281093 0.362389 0.357256 0.35733 
0.354869 0.342827 0.338248 0.269747 0.271229 0.272711 0.413588 0.393455 0.258779 
0.261457 0.261512 0.410451 0.400085 0.253166 0.414604 0.399757 0.38275 0.370169 
0.402951 0.399393 0.39949 0.395807 0.395903 0.395999 0.391838 0.377631 0.374325 
0.377821 0.385053 0.38515 0.365873 0.362706 0.359537 0.353215 0.350268 0.338976 
0.333239 0.330415 0.324889 0.324978 0.272899 0.362976 0.251959 0.248902 0.176355 
0.1589 0.150981 0.0435212 0.0298379 0.0320052 0.0318961 0.0321849 0.0320742 0.0321632 
0.0324544 0.0176064 0.0181138 0.0182746 0.00533191 0.00555567 0.00554613 -0.00685605 -0.0182976 
-0.0178038 -0.0292273 -0.0285723 -0.0407769 -0.0399482 -0.0334172 -0.0527902 -0.0527132 -0.0431176 
-0.0633257 -0.0637999 -0.0518888 -0.0767004 -0.0759862 -0.0625332 -0.0876997 -0.0868992 -0.0730361 
-0.0977142 -0.0968281 -0.0959857 -0.0936538 -0.092091 -0.108279 -0.107354 -0.105581 -0.103856 
-0.102983 -0.112975 -0.1112 -0.108652 -0.107809 -0.106916 -0.126589 -0.119031 -0.11812 
-0.117154 -0.42272 -0.408179 -0.390293 -0.45097 -0.393717 -0.373711 -0.574694 -0.545289 
-0.515253 -0.501604 -0.498254 -0.495748 -0.49247 -0.492406 -0.492342 -0.488956 -0.488893 
-0.482662 -0.476669 -0.528339 -0.511008 -0.501219 -0.502643 -0.502579 -0.505663 -0.502451 
-0.502387 -0.502323 -0.498872 -0.502196 -0.498745 -0.498681 -0.498618 -0.49541 -0.495347 
-0.492141 -0.507471 -0.494597 -0.494536 -0.494474 -0.494412 -0.497318 -0.494289 -0.494228 
-0.494166 -0.494105 -0.497009 -0.500159 -0.496885 -0.500034 -0.499972 -0.506084 -0.506021 
-0.515834 -0.502497 -0.498539 -0.507116 -0.507054 -0.506993 -0.514235 -0.507901 -0.510849 
-0.506986 -0.503846 -0.506865 -0.498185 -0.475433 -0.469925 -0.467273 -0.464622 -0.481324 
-0.470701 -0.468004 -0.465308 -0.547405 -0.543772 -0.540471 -0.540409 -0.53684 -0.536778 
-0.476154 -0.473413 -0.549965 -0.484249 -0.470978 -0.487231 -0.541741 -0.535102 -0.492204 
-0.497858 -0.505831 -0.508644 -0.543001 -0.539669 -0.523649 -0.529431 -0.532585 -0.52932 
-0.52618 -0.526124 -0.526069 -0.523098 -0.520418 -0.520364 -0.514479 -0.505783 -0.50835 
-0.508296 -0.508242 -0.508189 -0.508135 -0.505462 -0.542251 -0.538928 -0.531774 -0.529052 
-0.528997 -0.516261 -0.513547 -0.513494 -0.510485 -0.502454 -0.544405 -0.541333 -0.527389 
-0.521632 -0.518578 -0.513123 -0.507669 -0.526511 -0.526458 -0.51544 -0.515388 -0.51016 
-0.504932 -0.525993 -0.517905 -0.533804 -0.5256 -0.520218 -0.520167 -0.527836 -0.524922 
-0.552331 -0.549323 -0.583055 0.251996 0.245738 -0.585356 -0.594504 -0.599805 0.248335 
0.240758 -0.177284 -0.587657 -0.596805 -0.605953 -0.607268 0.247479 0.237167 0.164322 
0.153518 -0.165291 -0.178653 -0.59663 -0.60561 0.247968 0.234922 0.161347 0.14952 
-0.203438 -0.404683 -0.415299 -0.419516 -0.602778 -0.611814 0.245681 0.233981 0.159442 
0.146545 -0.204522 -0.432614 -0.44308 -0.616759 0.243394 0.231722 0.168365 -0.172538 
-0.185877 -0.619075 -0.624305 0.239775 0.225733 0.165366 -0.177096 -0.190553 -0.493811 
-0.617459 -0.62262 0.232332 0.162367 -0.183356 -0.198935 -0.538618 -0.557602 -0.61187 
-0.620906 0.159368 0.148466 0.136445 -0.18811 -0.20013 -0.566948 -0.592104 -0.608178 
-0.58168 -0.618102 -0.619163 0.159696 0.147473 0.134316 -0.191133 -0.201275 -0.589031 
-0.59057 -0.587727 -0.628336 -0.629481 -0.666937 -0.671564 0.250142 0.241051 0.14541 
0.133084 0.119952 -0.195962 -0.208081 -0.616559 -0.599267 -0.608368 -0.621447 -0.630651 
-0.635811 0.250602 0.242818 0.143294 0.130865 0.117657 -0.199011 -0.21113 -0.610669 
-0.623762 -0.628965 -0.638112 -0.671344 0.248287 0.114556 0.102229 0.0893572 0.0771342 
0.0645722 -0.202059 -0.216217 -0.609067 -0.622118 -0.669195 0.245972 0.0500331 0.0374971 
0.0251707 0.0129447 0.000721622 -0.0111942 -0.189428 -0.591518 -0.596955 -0.606525 -0.603692 
-0.589364 -0.594538 -0.66291 0.246524 0.0472968 0.0345604 0.022047 0.00974362 -0.00281246 
-0.0149091 -0.201688 -0.574026 -0.58335 -0.600661 -0.601999 -0.587817 -0.608425 0.247016 
-0.0298737 -0.0426625 -0.0543196 -0.0673152 -0.0787656 -0.152103 -0.164326 -0.181729 -0.194266 
-0.208872 -0.593592 -0.607045 -0.66222 -0.679875 0.247547 -0.0339253 -0.0566992 -0.0696173 
-0.0809384 -0.153656 -0.167401 -0.181353 -0.19742 -0.214071 -0.613747 -0.656082 0.248015 
-0.102931 -0.113434 -0.124976 -0.137843 -0.150899 -0.164145 -0.625724 -0.626679 -0.627685 
-0.671047 -0.629054 -0.625796 -0.63506 -0.644324 -0.66398 -0.673016 -0.63562 -0.636626 
-0.64601 -0.634168 -0.661971 -0.648371 -0.640527 -0.659934 -0.642051 -0.642828 -0.662179 
-0.666736 -0.648737 -0.636929 -0.651231 -0.639897 -0.640693 -0.634552 -0.646326 -0.651065 
-0.632643 -0.648585 -0.634641 -0.624863 -0.655057 -0.63664 -0.623543 -0.666365 -0.653076 
-0.638639 -0.628754 -0.64566 -0.654752 -0.640638 -0.6307 -0.624772 -0.65209 -0.669959 
-0.642637 -0.629351 -0.633344 0.243008 -0.654391 -0.659326 0.243541 -0.639314 -0.661345 
0.242446 -0.645716 0.242945 -0.64386 -0.646133 -0.634394 -0.647601 -0.665413 -0.644828 
-0.649902 -0.647143 -0.656347 0.224381 -0.635348 -0.640255 -0.645357 -0.658662 0.223016 
-0.633366 -0.63851 -0.656806 0.226636 0.211056 0.197361 -0.635681 -0.649273 -0.657992 
-0.666447 0.200155 0.189072 0.176423 0.164956 0.152199 0.139442 0.126685 -0.63267 
-0.637357 -0.642339 -0.660408 -0.660119 -0.660802 0.195523 0.184464 0.174504 0.161747 
0.14899 0.136233 0.122643 -0.610329 -0.616382 -0.622021 -0.652593 -0.657741 -0.658351 
-0.654546 -0.662905 0.10751 -0.6103 -0.607055 -0.608549 -0.650672 -0.65945 -0.655918 
-0.652787 -0.665008 -0.612337 -0.648721 -0.654218 -0.651004 -0.66319 -0.642396 -0.652495 
-0.652227 -0.650094 -0.650731 -0.643662 -0.640123 -0.640773 -0.65032 -0.638893 -0.642652 
-0.647746 -0.648414 -0.640426 -0.632527 -0.639573 -0.640584 -0.645597 -0.634667 -0.633421 
-0.638483 -0.639453 -0.632786 -0.631369 -0.633395 -0.638071 -0.609822 -0.623443 -0.633077 
-0.635573 -0.640235 -0.607789 -0.58602 -0.625866 -0.618381 -0.636151 -0.63775 -0.6424 
-0.625522 -0.593171 -0.618656 -0.615444 -0.620741 -0.618331 -0.595861 -0.619977 -0.604333 
-0.614776 -0.632549 -0.641309 -0.629097 -0.63559 -0.626102 -0.622433 -0.615078 -0.632072 
-0.638542 -0.649622 -0.650596 -0.651388 -0.636111 -0.64137 -0.636864 -0.644471 -0.645366 
-0.668209 -0.660986 -0.661321 -0.666294 -0.658882 -0.632558 -0.633442 -0.646582 -0.634845 
-0.639819 -0.644681 -0.635416 -0.632061 -0.633056 -0.633827 -0.649432 -0.656153 -0.662904 
-0.624677 -0.621998 -0.623027 -0.629934 1.00688 1.00268 1.0116 1.00779 1.00378 
0.969976 0.940884 0.920237 0.915585 1.02916 -0.691079 0.699801 0.659937 0.658301 
-0.695383 0.855089 0.83837 0.762329 0.766195 -0.687299 -0.664404 0.974597 0.94077 
0.676648 0.656302 0.636422 0.622571 0.60872 0.594869 0.57583 -0.667517 -0.668381 
0.679422 0.652785 0.621592 0.608 0.594407 0.575706 0.557254 -0.656548 -0.679955 
0.682324 0.643305 0.540555 0.527212 0.505029 -0.644715 1.13846 1.13521 0.672248 
0.651868 0.537198 0.523856 0.501733 -0.647393 -0.648692 1.12462 1.10067 0.662438 
0.642231 0.622485 -0.659208 -0.660051 1.13149 1.08366 1.07006 0.658886 0.638713 
-0.0212161 -0.66332 -0.671682 1.09027 1.06664 0.762446 0.701291 0.647226 -0.0249496 
-0.658745 -0.691509 -0.708423 1.10715 0.767079 -0.0575213 -0.0722122 -0.0869029 -0.101594 
-0.119222 -0.135862 -0.152863 -0.170237 -0.378289 -0.411631 -0.442717 -0.470155 -0.533092 
1.1249 -0.0503323 -0.0639153 -0.0790671 -0.0967563 -0.112231 -0.127706 -0.14318 -0.158655 
-0.176234 -0.390775 -0.410809 -0.426447 -0.683105 1.06619 1.03344 -0.195806 -0.208972 
-0.224446 -0.234395 -0.27087 -0.305274 -0.310153 -0.311272 -0.332981 -0.355608 -0.366712 
-0.653534 -0.632205 1.07251 1.04902 1.06903 1.04557 1.05238 1.02149 1.00777 
1.01804 1.00432 1.02391 1.01005 1.03992 1.01603 1.00205 1.03637 1.01252 
0.998532 1.00458 0.999319 0.972118 0.591531 0.417116 1.03926 0.989711 0.953272 
0.937634 1.0065 0.615667 0.587638 0.417417 0.461502 0.437907 0.419244 0.416512 
0.413524 0.390258 0.382005 0.453253 0.434211 1.08843 1.0256 0.847065 0.839586 
0.441016 0.430516 1.03756 0.969739 0.0156602 0.981079 0.956297 0.0122855 1.07294 
1.0026 0.273286 0.22088 0.175801 0.159078 0.0229968 0.949979 0.173522 0.155266 
0.0199212 -0.640508 -0.651525 -0.652331 0.172773 0.154155 0.0167674 -0.653727 -0.654297 
-0.655062 -0.65084 0.170365 0.152985 0.13139 0.112764 0.0137098 -0.644309 -0.650511 
-0.661787 -0.652003 0.166344 0.146369 0.0105831 -0.652516 -0.642986 0.163843 0.143721 
-0.650025 -0.635634 0.161325 0.141054 -0.642607 -0.638385 0.157213 0.135853 -0.731247 
-0.655034 -0.645422 -0.636152 0.151648 0.130799 -0.735059 -0.662924 -0.657937 0.144933 
0.125826 -0.746902 0.142221 0.124052 -0.767334 0.161714 0.0261714 0.157459 0.151733 
-0.723906 -0.731241 -0.720613 0.811993 -0.00486906 -0.716704 0.124578 -0.00911696 -0.0242364 
0.120274 0.0181534 0.00258761 -0.701254 -0.693834 0.115969 0.0140603 -0.00163443 0.00987666 
-0.00594313 0.00559394 -0.0103478 0.00148242 -0.0144127 -0.00262911 -0.0184776 -0.00783832 -0.0241835 
-0.0120929 -0.697593 -0.693521 -0.689985 -0.717286 -0.746464 -0.697596 -0.717601 -0.677177 
-0.67005 -0.705819 -0.718711 -0.697444 -0.705887 -0.740127 -0.667872 -0.684786 -0.693374 
-0.585844 -0.616011 -0.647421 -0.672127 -0.672862 -0.7322 -0.612485 -0.614295 -0.694818 
-0.695103 -0.672906 -0.655929 -0.650545 -0.651583 -0.658312 -0.653438 -0.665881 -0.672308 
-0.678521 -0.724519 -0.715613 -0.699455 -0.653685 -0.660682 -0.649517 -0.650615 -0.663058 
-0.682268 -0.68834 -0.68856 -0.68891 -0.67312 -0.608199 -0.604169 -0.599471 -0.656988 
-0.651723 -0.685202 -0.697432 -0.697641 -0.691988 -0.670619 -0.611917 -0.610957 -0.620702 
-0.598757 -0.600206 -0.647681 -0.648774 -0.662765 -0.658484 -0.654278 -0.631942 -0.62766 
-0.624766 -0.61956 -0.605073 -0.650928 -0.651758 -0.655217 -0.646033 -0.642271 -0.631076 
-0.628275 -0.625398 -0.620956 -0.604265 -0.660339 -0.661253 -0.655874 -0.668871 -0.64364 
-0.639929 -0.640786 -0.64616 -0.642492 -0.647735 -0.631231 -0.631472 -0.6324 -0.602908 
-0.606054 -0.66366 -0.658921 -0.665923 -0.672694 -0.644822 -0.654793 -0.655338 -0.630353 
-0.630599 -0.602194 -0.662137 -0.662974 -0.669772 -0.676339 -0.651681 -0.661788 -0.667198 
-0.629475 -0.628277 -0.60606 -0.609197 -0.66685 -0.673443 -0.680043 -0.664921 -0.628597 
-0.628852 -0.663927 -0.670547 -0.677172 -0.667309 -0.682721 -0.629873 -0.627979 -0.674301 
-0.664647 -0.669958 -0.680137 -0.690317 -0.630426 -0.630712 -0.67143 -0.682825 -0.688007 
-0.629543 -0.629833 -0.60622 -0.60686 -0.674625 -0.675519 -0.685698 -0.63009 -0.631113 
-0.607184 -0.606141 -0.671728 -0.678841 -0.679058 -0.627777 -0.628077 -0.60646 -0.60796 
-0.668832 -0.62832 -0.629351 -0.606576 -0.608928 -0.665936 -0.627435 -0.607531 -0.610736 
-0.62655 -0.624012 -0.608482 -0.610009 -0.623136 -0.607753 -0.609282 -0.623687 -0.605349 
-0.606872 -0.604622 -0.607828 -0.605565 -0.6071 -0.60567 -0.60805 -0.631557 -0.60494 
-0.607321 -0.634127 -0.605874 -0.606592 -0.635296 -0.602802 -0.603569 -0.637848 -0.603709 
-0.605314 -0.638312 -0.604612 -0.606227 -0.640877 -0.641539 -0.604691 -0.607136 -0.639941 
-0.642681 -0.605587 -0.606395 -0.637608 -0.606479 -0.606477 -0.605733 -0.607378 -0.604988 
-0.604993 -0.600982 -0.60589 -0.603497 -0.605147 -0.684219 -0.689812 -0.630164 -0.604377 
-0.606038 -0.681698 -0.68731 -0.625201 -0.627181 -0.604442 -0.605292 -0.673781 -0.679328 
-0.69027 -0.624284 -0.626266 -0.602008 -0.671279 -0.682307 -0.687788 -0.62473 -0.627411 
-0.685306 -0.685584 -0.680695 -0.625855 -0.629921 -0.683138 -0.678303 -0.628999 -0.680693 
-0.681004 -0.673518 -0.669178 -0.669625 -0.671686 -0.672238 -0.619383 -0.621464 -0.669328 
-0.669913 -0.620456 -0.622553 -0.667915 -0.673283 -0.617522 -0.619609 -0.665622 -0.671006 
-0.614594 -0.616671 -0.668258 -0.668729 -0.617657 -0.619762 -0.67173 -0.676872 -0.620044 
-0.620837 -0.60655 -0.664723 -0.674626 -0.621095 -0.621239 -0.604206 -0.605269 -0.66133 
-0.657235 -0.623465 -0.622303 -0.601352 -0.659021 -0.654974 -0.624503 -0.625358 -0.602653 
-0.603722 -0.657984 -0.658651 -0.627516 -0.625743 -0.608113 -0.605299 -0.66042 -0.660889 
-0.626561 -0.626788 -0.608886 -0.607655 -0.662826 -0.668129 -0.625607 -0.623851 -0.609655 
-0.608438 -0.660548 -0.670587 -0.626624 -0.626875 -0.610421 -0.609218 -0.658271 -0.66831 
-0.625667 -0.623941 -0.605734 -0.609234 -0.660614 -0.666032 -0.622743 -0.621014 -0.61788 
-0.606899 -0.658321 -0.668428 -0.619826 -0.620068 -0.616944 -0.602957 -0.604146 -0.606107 
-0.656028 -0.661477 -0.621967 -0.615537 -0.612181 -0.603352 -0.606852 -0.664528 -0.66494 
-0.620029 -0.606163 -0.606622 -0.606058 -0.652875 -0.658244 -0.629738 -0.605739 -0.595232 
-0.600239 -0.603731 -0.641577 -0.646828 -0.605757 -0.603478 -0.601816 -0.602876 -0.59747 
-0.599447 -0.602939 -0.639376 -0.644641 -0.608275 -0.608642 -0.609671 -0.603573 -0.603778 
-0.598198 -0.588665 -0.593652 -0.597135 -0.637175 -0.642455 -0.607397 -0.607768 -0.61021 
-0.612634 -0.612903 -0.605245 -0.594857 -0.592383 -0.595883 -0.599382 -0.639607 -0.653786 
-0.609578 -0.605361 -0.594359 -0.593487 -0.592563 -0.591589 -0.646338 -0.656241 -0.617357 
-0.612479 -0.60677 -0.648694 -0.660703 -0.656051 -0.664356 -0.662063 -0.664674 -0.652878 
-0.636848 -0.646682 -0.625765 -0.63112 -0.611042 -0.620557 -0.60463 -0.61005 -0.606726 
-0.60792 -0.616961 -0.614082 -0.619251 -0.624462 -0.632886 -0.634659 -0.631065 -0.621984 
-0.629762 -0.625548 -0.649451 -0.641019 -0.614727 -0.630721 -0.611849 -0.651921 -0.643338 
-0.62015 -0.60183 -0.662771 -0.658378 -0.61656 -0.618412 -0.660325 -0.651312 -0.619836 
-0.628794 -0.616693 -0.639348 -0.626872 -0.632366 -0.628756 -0.63004 -0.626478 -0.628252 
-0.623136 -0.632322 -0.624201 -0.639432 -0.63487 -0.637357 -0.687882 -0.676794 -0.672824 
-0.666592 -0.652786 -0.65538 0.546387 -0.65592 -0.669523 -0.620104 -0.626644 -0.643967 
-0.639621 -0.635445 -0.641536 0.528658 0.50262 -0.638051 -0.645469 -0.659199 -0.612126 
-0.648625 -0.628956 0.511177 0.496172 0.421232 -0.651379 -0.646898 0.462073 0.45628 
0.425581 0.415363 0.42619 0.414746 0.286577 -0.643341 -0.633857 0.4327 0.418569 
0.397597 0.369485 0.287321 -0.591298 -0.606784 0.42808 0.421775 0.389947 0.369308 
0.288114 -0.619948 -0.626042 0.371884 0.279458 0.267198 0.262106 -0.600409 -0.606523 
0.361808 0.351195 0.280244 -0.58853 -0.604041 0.307001 0.295376 0.283546 -0.590616 
-0.606433 0.38512 0.370708 0.315897 0.304684 0.288172 -0.597674 -0.603932 0.38839 
0.373977 0.335848 0.319042 0.30518 0.293864 -0.597847 -0.590402 -0.60143 0.420484 
0.409913 0.356223 -0.597364 -0.608562 0.423754 0.429394 0.369543 -0.594823 -0.601224 
0.474747 0.455848 0.437363 -0.592283 -0.603481 0.502355 0.483416 0.47353 0.450627 
-0.605699 0.510467 0.482095 0.472382 0.471202 -0.608116 0.581923 0.554754 0.545025 
-0.603896 -0.605536 0.479681 -0.596429 -0.59802 -0.611749 -0.608323 -0.639289 -0.634805 
-0.611553 -0.619077 -0.625449 -0.642368 -0.631032 -0.643164 -0.638585 -0.63438 -0.582839 
-0.641369 -0.642409 -0.643312 -0.639079 -0.518472 -0.594568 -0.611496 -0.620864 -0.612614 
-0.609131 -0.625236 -0.631528 -0.566874 -0.583606 -0.608014 -0.609346 -0.615403 -0.61204 
-0.468396 -0.556346 -0.57981 -0.603636 -0.619127 -0.634518 -0.63074 -0.404623 -0.443412 
-0.539811 -0.562559 -0.61528 -0.626141 -0.622472 -0.633095 -0.433976 -0.548842 -0.565381 
-0.615409 -0.616758 -0.622616 0.175188 -0.55844 -0.561629 -0.613016 -0.619112 -0.620273 
-0.626002 0.199544 0.18308 -0.334728 -0.528804 -0.557877 -0.588455 -0.59809 -0.622438 
-0.628256 0.197628 0.186415 0.168803 0.149421 -0.319638 -0.377933 -0.411924 -0.5441 
-0.567687 -0.580429 -0.620079 -0.625913 -0.626967 0.136554 0.126792 -0.563408 -0.617721 
-0.623571 -0.624658 0.13964 0.128976 -0.348146 -0.576934 -0.573008 -0.622349 -0.637203 
-0.647455 -0.566176 -0.582907 -0.615454 -0.625561 -0.62231 -0.516518 -0.539116 -0.54923 
-0.572195 -0.623268 -0.628938 -0.518825 -0.535364 -0.54552 -0.568443 -0.630226 -0.62666 
-0.624233 -0.504595 -0.515072 -0.531612 -0.651487 -0.638152 -0.625473 -0.60954 -0.490024 
-0.500799 -0.596505 -0.58648 -0.577076 -0.469256 -0.480272 -0.491028 -0.501675 -0.618745 
-0.611761 -0.459745 -0.470737 -0.620852 -0.617751 -0.409599 -0.62293 -0.628304 -0.62945 
-0.617871 -0.625262 -0.626117 -0.631377 -0.632364 -0.633569 -0.63878 -0.627095 -0.600532 
-0.0810958 -0.0973645 -0.113949 -0.132598 -0.152007 -0.624992 -0.602176 0.012576 -0.00186751 
-0.0164247 -0.032096 -0.0469475 -0.0626868 -0.631218 -0.611943 0.0159924 0.00143495 -0.0131223 
-0.0271637 -0.0409347 -0.0559885 -0.624936 -0.617725 -0.603333 -0.593544 0.146616 0.0754606 
0.0611135 0.0472509 0.0334767 -0.618682 -0.615661 -0.608946 -0.602712 0.151073 0.0635058 
0.0499033 0.0365334 -0.614813 -0.604435 -0.598194 -0.59565 0.239942 0.227656 0.213244 
0.197126 0.182855 0.168583 -0.607447 -0.600996 0.24102 0.226889 0.212758 0.196942 
0.182948 0.166218 -0.615752 -0.609197 -0.602844 0.247547 -0.6256 -0.622656 -0.608425 
-0.602129 0.32946 0.325027 0.312895 0.300763 0.285189 -0.63598 -0.621448 -0.607495 
0.322765 0.313189 0.301159 0.302934 0.292608 0.279841 -0.613131 -0.602891 -0.600567 
0.36507 0.357155 0.351494 0.341021 0.332667 0.324289 0.320173 0.263732 0.249344 
0.0265354 0.0171001 0.00721076 -0.00285396 -0.604817 -0.602253 0.364969 0.357144 0.349173 
0.341058 0.33506 0.322449 0.309867 0.0724888 0.0654269 0.0566306 0.0470032 0.0376208 
-0.603918 0.415371 0.405264 0.395157 0.387638 0.379973 0.0649473 0.0576724 0.0497397 
0.0403984 -0.606771 -0.604498 0.420486 0.413055 0.402803 0.392551 0.387363 0.201747 
0.191844 0.15835 0.0749722 -0.601328 0.494701 0.487946 0.48126 0.470492 0.199193 
0.165861 0.156317 -0.613377 0.532425 0.522723 0.516458 0.506687 0.197297 0.186328 
0.176619 0.104069 0.0955564 0.0870437 -0.61858 0.508904 0.197149 0.190392 0.178608 
0.106984 -0.626829 -0.609292 -0.613384 0.650725 0.222841 0.211434 0.203548 0.134127 
0.125563 0.117554 0.0226572 -0.630232 -0.612266 -0.62646 -0.611539 -0.619672 -0.616871 
0.657288 0.647249 0.637211 0.627172 0.607094 0.58927 0.278351 0.259847 0.246638 
0.236429 0.227609 0.180738 0.150178 0.142534 0.13412 0.125705 0.0607122 0.0513861 
0.0418667 0.0336951 0.0247845 -0.568879 -0.577623 -0.613433 -0.62173 -0.624229 -0.594674 
-0.606039 -0.610761 -0.61165 -0.612705 0.719799 0.705101 0.699721 0.689682 0.684097 
0.678649 0.274081 0.260441 0.250053 0.239776 0.22961 0.186526 0.153575 0.145114 
0.136652 0.128819 0.0525421 0.043692 0.0355111 0.0267742 -0.535806 -0.556597 -0.553832 
-0.56249 -0.597504 -0.605727 -0.601465 -0.621694 -0.617797 -0.623018 -0.628391 -0.608936 
-0.613243 -0.6178 0.726818 0.716711 0.706604 0.696497 0.671882 0.489457 0.468602 
0.340601 0.322365 0.299631 0.285315 0.274516 0.265419 0.182775 0.174211 0.164802 
0.0711615 0.0622052 0.0537905 0.0456232 -0.538188 -0.559262 -0.568198 -0.583203 -0.606695 
-0.608758 -0.623316 -0.631282 -0.620817 -0.626205 -0.631464 -0.63245 -0.612565 -0.617003 
-0.607645 0.739537 0.729567 0.296549 0.288985 0.28143 0.269079 0.185677 0.176154 
0.16759 -0.493201 -0.633028 -0.641129 -0.623104 -0.618569 -0.61438 -0.619718 -0.625219 
-0.626173 -0.61077 -0.608291 -0.602752 -0.581629 0.465899 0.458356 0.403561 0.377658 