# vtk DataFile Version 4.2
vtk output
ASCII
DATASET POLYDATA
POINTS 6949 float
-4.56085 -1.26665 0.632035 -4.55609 -1.26657 0.61458 -4.55596 -1.24848 0.614694 
-4.46373 -1.20381 0.601333 -4.41918 -1.17349 0.594945 -3.8525 -1.55292 0.494117 
-3.91848 -1.56681 0.503541 -3.98771 -1.58152 0.513428 -4.59909 -1.29897 0.60378 
-4.64766 -1.29517 0.610821 -4.5512 -1.24841 0.597239 -4.45908 -1.20373 0.584267 
-4.45895 -1.18604 0.584379 -3.94909 -1.5819 0.493521 -4.40998 -1.17334 0.561186 
-4.36661 -1.14372 0.555319 -4.36649 -1.12641 0.555428 -4.31971 -1.09758 0.533188 
-4.35726 -1.10896 0.522144 -3.94635 -0.972197 0.381731 -4.12301 -1.02015 0.384994 
-4.6094 -0.0350794 0.336789 -0.985846 -0.414654 -0.0204546 -0.985827 -0.412039 -0.0204381 
-0.984779 -0.408748 -0.0203675 -0.98476 -0.406138 -0.020351 -0.981047 -0.411899 -0.0227429 
-0.980001 -0.408622 -0.0226679 -0.983065 -0.40806 -0.0228273 -0.984074 -0.406127 -0.0228694 
-0.979301 -0.40602 -0.0251517 -0.980308 -0.404101 -0.0251984 -0.983368 -0.403506 -0.0253714 
-0.977594 -0.405332 -0.027584 -0.978601 -0.403418 -0.0276354 -0.979607 -0.401494 -0.0276867 
-0.856452 0.0739851 -0.0375038 -0.879224 0.129793 -0.0396623 -0.879209 0.131967 -0.0396485 
-1.7723 0.793581 -0.15187 -1.77061 0.793607 -0.158063 -1.77491 0.797308 -0.165025 
-1.16011 -0.0385849 -0.091971 -1.76724 0.793661 -0.170449 -1.75126 0.790208 -0.168286 
-1.76058 0.790627 -0.175956 -1.74462 0.78715 -0.173719 -1.68369 0.785694 -0.165117 
-1.75294 0.78698 -0.181275 -1.74296 0.787176 -0.179816 -1.72702 0.783547 -0.177508 
-1.68707 0.788946 -0.171644 -1.75122 0.793373 -0.187378 -1.7353 0.789791 -0.184995 
-1.70035 0.798654 -0.179679 -1.06393 0.223917 -0.0897848 -1.0639 0.227001 -0.0897653 
-1.06388 0.230085 -0.0897458 -1.06386 0.233169 -0.0897263 -1.06681 0.237507 -0.0901636 
-1.06778 0.241028 -0.0902963 -1.73364 0.789817 -0.191065 -1.69874 0.798679 -0.185588 
-1.07102 0.230245 -0.093996 -1.06704 0.231732 -0.0933488 -1.06701 0.234835 -0.0933292 
-1.06699 0.237938 -0.0933096 -1.06697 0.241041 -0.09329 -1.72205 0.789869 -0.19554 
-1.71706 0.792956 -0.194724 -1.29919 0.568756 -0.128851 -1.15752 -0.0349779 -0.112789 
-1.15749 -0.0314488 -0.112767 -1.15945 -0.0278982 -0.113073 -1.15744 -0.0243906 -0.112722 
-1.1594 -0.020821 -0.113028 -1.15739 -0.0173324 -0.112678 -1.15736 -0.0138032 -0.112656 
-1.15734 -0.0102741 -0.112633 -1.15433 -0.00686256 -0.11212 -1.14934 -0.00356726 -0.111279 
-1.14932 -7.60406e-05 -0.111257 -1.14632 0.00325499 -0.110744 -1.14331 0.00655761 -0.110231 
-1.13833 0.00970607 -0.109391 -1.07943 0.0533912 -0.0994373 -1.07941 0.0565508 -0.0994174 
-1.08038 0.0598538 -0.0995606 -1.08135 0.0631663 -0.0997037 -1.08132 0.0663354 -0.0996836 
-1.08031 0.0693469 -0.0995006 -0.855913 0.0714153 -0.0624183 -0.853915 0.0730139 -0.0620802 
-1.07009 0.245867 -0.0969094 -1.06908 0.248556 -0.0967284 -1.07004 0.25211 -0.09687 
-1.07002 0.255232 -0.0968503 -1.06901 0.257907 -0.0966694 -1.06997 0.261475 -0.0968109 
-1.07094 0.265053 -0.0969523 -1.07283 0.278509 -0.0971953 -1.07775 0.284044 -0.0979805 
-1.07872 0.287688 -0.0981215 -1.0787 0.290852 -0.0981015 -1.07966 0.29451 -0.0982424 
-1.01417 -0.0863968 -0.0922418 -1.01018 -0.0832329 -0.0915474 -1.0131 -0.0749439 -0.0920008 
-1.01901 -0.0695927 -0.0929786 -1.15466 -0.0420051 -0.115902 -1.15463 -0.0384854 -0.115879 
-1.1374 0.0131596 -0.112687 -1.13539 0.0164539 -0.112329 -1.13437 0.0198065 -0.112139 
-1.13435 0.0232314 -0.112118 -1.12937 0.0262234 -0.111256 -1.1234 0.0290768 -0.110226 
-1.1204 0.0321614 -0.109701 -1.08065 0.044165 -0.102881 -1.07369 0.0464628 -0.101687 
-1.07367 0.0495987 -0.101667 -1.08049 0.0663487 -0.102741 -1.08047 0.0695178 -0.102721 
-1.07846 0.0723621 -0.102366 -1.07448 0.0748533 -0.101676 -0.855362 0.0714241 -0.0644385 
-1.06433 0.243742 -0.099092 -1.06628 0.247705 -0.0994042 -1.06922 0.252123 -0.0998821 
-1.07216 0.256571 -0.10036 -1.07313 0.260153 -0.100506 -1.07311 0.263294 -0.100486 
-1.07308 0.266435 -0.100466 -1.07695 0.280897 -0.101049 -1.0789 0.285016 -0.10136 
-1.07789 0.287701 -0.101175 -1.08083 0.292333 -0.101651 -1.08476 0.297487 -0.102293 
-1.08572 0.301184 -0.102438 -1.1221 0.343278 -0.10841 -1.01144 -0.086217 -0.0946413 
-1.00944 -0.0832211 -0.0942761 -1.01132 -0.069192 -0.0945338 -1.14279 -0.0349657 -0.117348 
-1.06891 0.045978 -0.104023 -1.06889 0.049095 -0.104003 -1.07768 0.0660561 -0.105455 
-1.07864 0.0693734 -0.105607 -1.07467 0.0718882 -0.104898 -1.07365 0.0748665 -0.104706 
-0.8558 0.0716757 -0.0666304 -1.08706 0.273289 -0.106051 -1.08704 0.276501 -0.10603 
-1.08208 0.277385 -0.105159 -1.09562 0.322955 -0.107295 -1.09559 0.326209 -0.107275 
-1.01169 -0.0862891 -0.0975574 -1.01266 -0.083526 -0.0977177 -1.09786 0.321798 -0.114312 
-1.09784 0.325072 -0.114291 -1.09388 0.326236 -0.113555 -1.10189 0.327698 -0.118368 
-1.09597 0.327832 -0.117246 -1.11379 0.334504 -0.123995 -1.10689 0.334172 -0.122657 
-0.991918 -0.0792928 -0.105151 -0.855022 0.0700976 -0.0771566 -0.986275 -0.0789095 -0.10681 
-1.24015 0.547634 -0.159657 -1.2352 0.544878 -0.162684 -0.966153 -0.0324411 -0.110585 
-1.2361 0.546281 -0.166934 -1.237 0.547684 -0.171202 -0.872141 -0.055043 -0.0946198 
-0.873102 -0.0528766 -0.0948295 -0.874063 -0.0507007 -0.0950392 -0.874046 -0.0484885 -0.0950252 
-0.91439 0.0444181 -0.103823 -0.867643 -0.0526857 -0.0958182 -0.91186 0.0369073 -0.105741 
-0.910868 0.0391606 -0.105499 -0.91085 0.0415576 -0.105484 -1.23296 0.546331 -0.178452 
-0.86512 -0.0526039 -0.0974597 -0.912201 0.037061 -0.10829 -0.912184 0.0394675 -0.108275 
-0.912166 0.0418739 -0.10826 -0.913122 0.0444382 -0.108476 -0.881344 0.127509 -0.100509 
-0.909123 -0.0279499 -0.110311 -0.908133 -0.0255783 -0.110059 -0.915827 -0.013287 -0.111879 
-0.913864 -0.0109595 -0.111389 -0.910929 -0.00870476 -0.110664 -0.909939 -0.00636152 -0.110412 
-0.907977 -0.00409093 -0.109923 -0.903097 -0.00204306 -0.108724 -0.902108 0.000248078 -0.108473 
-0.903063 0.00268453 -0.108695 -0.903046 0.00504833 -0.10868 -0.904001 0.00749899 -0.108901 
-0.904956 0.00995914 -0.109123 -0.905911 0.0124288 -0.109345 -0.906865 0.0149078 -0.109566 
-0.905876 0.0171848 -0.109315 -0.905859 0.0195628 -0.109299 -0.905841 0.0219408 -0.109284 
-0.906796 0.0244388 -0.109506 -0.908723 0.0270711 -0.109964 -0.909677 0.0295928 -0.110185 
-0.911604 0.0322583 -0.110642 -0.912558 0.0348037 -0.110863 -0.914484 0.0375023 -0.111321 
-0.87978 0.127176 -0.102454 -1.24732 0.558149 -0.190088 -0.861077 -0.054637 -0.100943 
-0.881125 0.12787 -0.105108 -1.25302 0.563018 -0.195666 -0.927208 0.11443 -0.1192 
-0.924285 0.11605 -0.118451 -0.921362 0.117641 -0.117702 -0.917471 0.118904 -0.116709 
-0.881498 0.128223 -0.107537 -2.38672 1.04814 -0.485457 -0.920715 0.117651 -0.120079 
-0.917796 0.119214 -0.119317 -2.33675 1.04094 -0.482521 -2.34826 1.05691 -0.48543 
-2.34819 1.06639 -0.48537 -2.35971 1.08253 -0.488279 -2.34806 1.08534 -0.485251 
-0.916204 0.11648 -0.121442 -0.913289 0.118024 -0.120665 -0.885166 0.12537 -0.113211 
-2.33393 1.08807 -0.49131 -2.33386 1.09748 -0.49125 -0.910668 0.124696 -0.122448 
-0.895204 0.124356 -0.11829 -0.887472 0.124072 -0.116212 -0.88167 0.12438 -0.11465 
-0.879675 0.132789 -0.114077 -0.881349 -0.0464786 -0.117663 -0.883264 -0.0442392 -0.118178 
-0.853408 0.0783233 -0.109466 -0.889772 0.122747 -0.11924 -1.27655 0.571199 -0.223298 
-1.26691 0.568596 -0.220668 -0.87568 0.120477 -0.117726 -1.27256 0.56918 -0.226589 
-1.26389 0.567245 -0.224179 -1.26953 0.567839 -0.230123 -1.26088 0.565895 -0.227671 
-0.873436 0.133668 -0.121716 -1.27034 0.569215 -0.234734 -1.2617 0.56728 -0.232242 
-0.872845 0.133677 -0.123887 -0.87321 0.134044 -0.126343 -0.850972 0.0807758 -0.122139 
-0.876455 0.133208 -0.129692 -0.874528 0.134768 -0.129098 -0.849468 0.078386 -0.123928 
-0.850407 0.0807848 -0.124209 -0.872962 0.136679 -0.130974 -0.872946 0.138939 -0.13096 
-0.850813 0.0789008 -0.126593 -0.849843 0.0807938 -0.12628 -0.873321 0.137051 -0.133453 
-0.872352 0.138949 -0.13314 -0.850232 0.0810604 -0.128654 -0.87558 0.138146 -0.136548 
-0.873661 0.139691 -0.135927 -0.849682 0.0789188 -0.130743 -0.848715 0.0808117 -0.130421 
-0.847748 0.0826951 -0.130099 -0.875015 0.133598 -0.138775 -0.874998 0.135877 -0.138761 
-0.849116 0.0789278 -0.132818 -0.848151 0.0808207 -0.132491 -0.847185 0.0827041 -0.132165 
-0.873466 0.133256 -0.140661 -0.874399 0.135887 -0.14096 -0.847602 0.0786838 -0.134575 
-0.847587 0.0808297 -0.134562 -0.871921 0.132913 -0.142538 -0.871904 0.135182 -0.142524 
-0.847986 0.0789458 -0.136968 -0.84797 0.0810964 -0.136955 -0.873218 0.133627 -0.145371 
-0.874148 0.136263 -0.145678 -1.80417 0.821729 -0.460488 -1.79845 0.825142 -0.458523 
-0.84742 0.0789548 -0.139043 -0.847405 0.0811054 -0.13903 -0.872619 0.133637 -0.147569 
-0.872602 0.135915 -0.147555 -1.80235 0.821758 -0.467193 -1.79663 0.825171 -0.4652 
-0.844965 0.0784576 -0.140455 -0.846839 0.0811144 -0.141105 -0.873908 0.134351 -0.15043 
-1.87158 0.814506 -0.49893 -1.85173 0.810129 -0.491962 -1.81952 0.812348 -0.480621 
-1.81947 0.819392 -0.480576 -1.81282 0.822377 -0.478225 -0.844402 0.0784666 -0.142521 
-0.846274 0.0811234 -0.14318 -1.93961 0.817075 -0.530952 -1.92449 0.816208 -0.525554 
-1.91031 0.815728 -0.520492 -1.88954 0.81131 -0.51309 -1.8763 0.811059 -0.508364 
-1.85648 0.806815 -0.501299 -1.83666 0.802371 -0.494235 -1.83001 0.805583 -0.49185 
-0.844782 0.0787286 -0.144928 -1.93007 0.812884 -0.535627 -1.9225 0.81624 -0.532867 
-1.90834 0.815759 -0.527736 -1.88759 0.811341 -0.520234 -1.88096 0.814918 -0.517815 
-1.86774 0.814567 -0.513026 -1.85452 0.814083 -0.508237 -1.84789 0.817394 -0.50582 
-0.847982 0.0797502 -0.148379 -1.95758 0.774932 -0.553969 -1.91415 0.782359 -0.537967 
-1.92067 0.793534 -0.540324 -1.91404 0.797451 -0.537871 -1.90647 0.800774 -0.535076 
-1.88576 0.796564 -0.527471 -0.850233 0.0805187 -0.151518 -1.91895 0.755669 -0.547876 
-1.90483 0.755756 -0.542605 -1.90477 0.763264 -0.542557 -1.89059 0.770575 -0.53724 
-1.88397 0.774383 -0.534756 -0.850599 0.080781 -0.153974 -1.92462 0.736807 -0.558157 
[...]
POINT_DATA 6949
SCALARS z_coord float
LOOKUP_TABLE default
0.632035 0.61458 0.614694 0.601333 0.594945 0.494117 0.503541 0.513428 0.60378 
0.610821 0.597239 0.584267 0.584379 0.493521 0.561186 0.555319 0.555428 0.533188 
0.522144 0.381731 0.384994 0.336789 -0.0204546 -0.0204381 -0.0203675 -0.020351 -0.0227429 
-0.0226679 -0.0228273 -0.0228694 -0.0251517 -0.0251984 -0.0253714 -0.027584 -0.0276354 -0.0276867 
-0.0375038 -0.0396623 -0.0396485 -0.15187 -0.158063 -0.165025 -0.091971 -0.170449 -0.168286 
-0.175956 -0.173719 -0.165117 -0.181275 -0.179816 -0.177508 -0.171644 -0.187378 -0.184995 
-0.179679 -0.0897848 -0.0897653 -0.0897458 -0.0897263 -0.0901636 -0.0902963 -0.191065 -0.185588 
-0.093996 -0.0933488 -0.0933292 -0.0933096 -0.09329 -0.19554 -0.194724 -0.128851 -0.112789 
-0.112767 -0.113073 -0.112722 -0.113028 -0.112678 -0.112656 -0.112633 -0.11212 -0.111279 
-0.111257 -0.110744 -0.110231 -0.109391 -0.0994373 -0.0994174 -0.0995606 -0.0997037 -0.0996836 
-0.0995006 -0.0624183 -0.0620802 -0.0969094 -0.0967284 -0.09687 -0.0968503 -0.0966694 -0.0968109 
-0.0969523 -0.0971953 -0.0979805 -0.0981215 -0.0981015 -0.0982424 -0.0922418 -0.0915474 -0.0920008 
-0.0929786 -0.115902 -0.115879 -0.112687 -0.112329 -0.112139 -0.112118 -0.111256 -0.110226 
-0.109701 -0.102881 -0.101687 -0.101667 -0.102741 -0.102721 -0.102366 -0.101676 -0.0644385 
-0.099092 -0.0994042 -0.0998821 -0.10036 -0.100506 -0.100486 -0.100466 -0.101049 -0.10136 
-0.101175 -0.101651 -0.102293 -0.102438 -0.10841 -0.0946413 -0.0942761 -0.0945338 -0.117348 
-0.104023 -0.104003 -0.105455 -0.105607 -0.104898 -0.104706 -0.0666304 -0.106051 -0.10603 
-0.105159 -0.107295 -0.107275 -0.0975574 -0.0977177 -0.114312 -0.114291 -0.113555 -0.118368 
-0.117246 -0.123995 -0.122657 -0.105151 -0.0771566 -0.10681 -0.159657 -0.162684 -0.110585 
-0.166934 -0.171202 -0.0946198 -0.0948295 -0.0950392 -0.0950252 -0.103823 -0.0958182 -0.105741 
-0.105499 -0.105484 -0.178452 -0.0974597 -0.10829 -0.108275 -0.10826 -0.108476 -0.100509 
-0.110311 -0.110059 -0.111879 -0.111389 -0.110664 -0.110412 -0.109923 -0.108724 -0.108473 
-0.108695 -0.10868 -0.108901 -0.109123 -0.109345 -0.109566 -0.109315 -0.109299 -0.109284 
-0.109506 -0.109964 -0.110185 -0.110642 -0.110863 -0.111321 -0.102454 -0.190088 -0.100943 
-0.105108 -0.195666 -0.1192 -0.118451 -0.117702 -0.116709 -0.107537 -0.485457 -0.120079 
-0.119317 -0.482521 -0.48543 -0.48537 -0.488279 -0.485251 -0.121442 -0.120665 -0.113211 
-0.49131 -0.49125 -0.122448 -0.11829 -0.116212 -0.11465 -0.114077 -0.117663 -0.118178 
-0.109466 -0.11924 -0.223298 -0.220668 -0.117726 -0.226589 -0.224179 -0.230123 -0.227671 
-0.121716 -0.234734 -0.232242 -0.123887 -0.126343 -0.122139 -0.129692 -0.129098 -0.123928 
-0.124209 -0.130974 -0.13096 -0.126593 -0.12628 -0.133453 -0.13314 -0.128654 -0.136548 
-0.135927 -0.130743 -0.130421 -0.130099 -0.138775 -0.138761 -0.132818 -0.132491 -0.132165 
-0.140661 -0.14096 -0.134575 -0.134562 -0.142538 -0.142524 -0.136968 -0.136955 -0.145371 
-0.145678 -0.460488 -0.458523 -0.139043 -0.13903 -0.147569 -0.147555 -0.467193 -0.4652 
-0.140455 -0.141105 -0.15043 -0.49893 -0.491962 -0.480621 -0.480576 -0.478225 -0.142521 
-0.14318 -0.530952 -0.525554 -0.520492 -0.51309 -0.508364 -0.501299 -0.494235 -0.49185 
-0.144928 -0.535627 -0.532867 -0.527736 -0.520234 -0.517815 -0.513026 -0.508237 -0.50582 
-0.148379 -0.553969 -0.537967 -0.540324 -0.537871 -0.535076 -0.527471 -0.151518 -0.547876 
-0.542605 -0.542557 -0.53724 -0.534756 -0.153974 -0.558157 -0.547521 -0.54465 -0.586125 
-0.586076 -0.591701 -0.591651 -0.5916 -0.576091 -0.578579 -0.575994 -0.573048 -0.586482 
-0.320703 -0.327791 -0.42173 -0.511133 -0.508834 -0.333828 -0.339939 -0.338774 -0.344121 
-0.34833 -0.349396 -0.352774 -0.524044 -0.522231 -0.538188 -0.534118 -0.531883 -0.52009 
-0.514342 -0.206917 -0.207348 -0.207334 -0.533547 -0.533511 -0.523378 -0.521566 -0.517535 
-0.209584 -0.209569 -0.209555 -0.528755 -0.449936 -0.451377 -0.220106 -0.219636 -0.536505 
-0.486474 -0.460139 -0.222414 -0.221481 -0.491479 -0.451839 -0.464778 -0.224722 -0.374368 
-0.471536 -0.376199 -0.465734 -0.462879 -0.505464 -0.528351 -0.528317 -0.528284 -0.380007 
-0.373269 -0.376123 -0.380893 -0.37991 -0.482357 -0.513787 -0.508898 -0.528138 -0.528105 
-0.528072 -0.378829 -0.383646 -0.382653 -0.386501 -0.524169 -0.513838 -0.533439 -0.535364 
-0.533373 -0.53334 -0.533306 -0.533273 -0.53324 -0.475185 -0.475156 -0.478093 -0.538508 
-0.540451 -0.538442 -0.540384 -0.540351 -0.538342 -0.536333 -0.400253 -0.504111 -0.505578 
-0.47667 -0.475144 -0.538092 -0.478191 -0.47261 -0.508809 -0.510291 -0.472929 -0.471373 
-0.516622 -0.518117 -0.511982 -0.506865 -0.475716 -0.474146 -0.518237 -0.481586 -0.480002 
-0.479974 -0.517818 -0.48696 -0.486932 -0.488473 -0.498742 -0.494492 -0.492881 -0.491269 
-0.525695 -0.525665 -0.494571 -0.494543 -0.525548 -0.525518 -0.509011 -0.511665 -0.513246 
-0.516436 -0.516407 -0.517987 -0.519567 -0.52222 -0.525409 -0.528597 -0.530176 -0.416944 
-0.419046 -0.414769 -0.413682 -0.413659 -0.416824 -0.516132 -0.517727 -0.421754 -0.418512 
-0.417416 -0.426897 -0.430089 -0.516233 -0.518933 -0.436245 -0.431894 -0.419266 -0.53353 
-0.422037 -0.412486 -0.413553 -0.427302 -0.422329 -0.414375 -0.413253 -0.420926 -0.419793 
-0.420693 -0.540538 -0.537188 -0.529414 -0.52496 -0.415527 -0.413827 -0.424263 -0.426475 
-0.530519 -0.527702 -0.529346 -0.525971 -0.524269 -0.413341 -0.42896 -0.428937 -0.431167 
-0.532132 -0.530416 -0.532074 -0.530359 -0.53033 -0.487974 -0.476451 -0.422474 -0.420746 
-0.422428 -0.426383 -0.42636 -0.428609 -0.429722 -0.430267 -0.43138 -0.431357 -0.426714 
-0.533046 -0.534718 -0.532989 -0.531827 -0.521646 -0.489077 -0.479241 -0.47919 -0.484739 
-0.425948 -0.425925 -0.425902 -0.425307 -0.425857 -0.42927 -0.430965 -0.433232 -0.433782 
-0.432041 -0.426227 -0.539106 -0.540791 -0.539048 -0.49947 -0.493061 -0.494196 -0.490431 
-0.426783 -0.53713 -0.545164 -0.545135 -0.543379 -0.541623 -0.513473 -0.511692 -0.502308 
-0.497019 -0.485197 -0.484003 -0.483977 -0.485121 -0.431405 -0.536711 -0.541325 -0.513433 
-0.51046 -0.505129 -0.500977 -0.486707 -0.485503 -0.526389 -0.522914 -0.519917 -0.518702 
-0.507957 -0.503774 -0.440113 -0.503584 -0.499967 -0.498745 -0.49853 -0.545915 -0.545888 
-0.520999 -0.520973 -0.522152 -0.530487 -0.527424 -0.526183 -0.535747 -0.531438 -0.531411 
-0.534272 -0.539793 -0.539766 -0.53825 -0.54257 -0.536956 -0.533825 -0.535041 -0.510959 
-0.510934 -0.474959 -0.533447 -0.533421 -0.536522 -0.535245 -0.533343 -0.503275 -0.495619 
-0.489871 -0.484124 -0.4841 -0.482805 -0.487328 -0.543084 -0.540538 -0.543031 -0.537336 
-0.534791 -0.512206 -0.513463 -0.514721 -0.512133 -0.505702 -0.489654 -0.547014 -0.541278 
-0.538714 -0.535516 -0.516049 -0.51086 -0.508254 -0.504358 -0.503043 -0.483043 -0.490064 
-0.498364 -0.554217 -0.549718 -0.542663 -0.538165 -0.518469 -0.513244 -0.50672 -0.502146 
-0.500823 -0.500799 -0.342374 -0.342357 -0.489782 -0.494919 -0.49812 -0.549186 -0.547873 
-0.540769 -0.536883 -0.517015 -0.518301 -0.513015 -0.5071 -0.345511 -0.345495 -0.500441 
-0.53356 -0.513437 -0.512095 -0.509434 -0.508092 -0.506091 -0.348658 -0.348642 -0.34797 
-0.496204 -0.502721 -0.544618 -0.525789 -0.520453 -0.519101 -0.521733 -0.509712 -0.508361 
-0.350493 -0.351137 -0.350461 -0.495149 -0.537253 -0.535914 -0.534575 -0.531923 -0.522882 
-0.516841 -0.514142 -0.515456 -0.51677 -0.511646 -0.537037 -0.534366 -0.531695 -0.530348 
-0.524572 -0.515795 -0.511732 -0.511035 -0.511662 -0.512986 -0.515655 -0.513866 -0.513843 
-0.515165 -0.542144 -0.539455 -0.535434 -0.534078 -0.519617 -0.52088 -0.515177 -0.515154 
-0.51637 -0.517702 -0.519033 -0.517655 -0.516277 -0.516254 -0.520295 -0.520271 -0.518893 
-0.517515 -0.516138 -0.516114 -0.517446 -0.522068 -0.520691 -0.523375 -0.524706 -0.544538 
-0.539148 -0.535101 -0.532394 -0.53237 -0.523182 -0.521793 -0.52177 -0.520381 -0.516944 
-0.513915 -0.518552 -0.519893 -0.51987 -0.517801 -0.516414 -0.517755 -0.521141 -0.521118 
-0.519731 -0.519708 -0.519684 -0.518298 -0.518275 -0.520885 -0.519499 -0.520839 -0.519452 
-0.519429 -0.548313 -0.545588 -0.538812 -0.534737 -0.533363 -0.514557 -0.514534 -0.515886 
-0.515863 -0.514465 -0.515818 -0.517857 -0.520584 -0.516711 -0.511881 -0.511858 -0.515269 
-0.527116 -0.527092 -0.524325 -0.527045 -0.52908 -0.542499 -0.535678 -0.535654 -0.53563 
-0.519584 -0.519561 -0.518153 -0.518131 -0.516723 -0.516008 -0.514601 -0.516087 -0.511224 
-0.503596 -0.521619 -0.521596 -0.522954 -0.542057 -0.537927 -0.539272 -0.540616 -0.537856 
-0.519591 -0.519568 -0.519546 -0.518129 -0.518106 -0.519477 -0.515274 -0.514688 -0.509098 
-0.5049 -0.503486 -0.506366 -0.509819 -0.509797 -0.548495 -0.544339 -0.544315 -0.541536 
-0.541512 -0.516859 -0.518941 -0.518919 -0.518896 -0.520277 -0.512592 -0.510468 -0.508344 
-0.50552 -0.502696 -0.513911 -0.517218 -0.553511 -0.550714 -0.547917 -0.543734 -0.518852 
-0.518123 -0.518101 -0.522315 -0.504714 -0.506102 -0.50608 -0.504648 -0.503216 -0.507471 
-0.522778 -0.554432 -0.553012 -0.550197 -0.545986 -0.518117 -0.518805 -0.520205 -0.525869 
-0.504518 -0.503787 -0.505894 -0.501612 -0.503717 -0.503695 -0.552458 -0.553838 -0.548196 
-0.54747 -0.544638 -0.515806 -0.511487 -0.510036 -0.510014 -0.509278 -0.509256 -0.507806 
-0.508409 -0.54683 -0.545393 -0.51118 -0.511158 -0.50898 -0.508958 -0.513903 -0.511727 
-0.558276 -0.554696 -0.483668 -0.488723 -0.495228 -0.495932 -0.493011 -0.49299 -0.499494 
-0.505272 -0.512499 -0.512383 -0.509445 -0.503189 -0.505337 -0.507484 -0.508909 -0.498431 
-0.506056 -0.508191 -0.543562 -0.555433 -0.488965 -0.496241 -0.501327 -0.500577 -0.500556 
-0.501264 -0.504891 -0.509976 -0.518708 -0.492353 -0.49743 -0.504691 -0.50352 -0.504954 
-0.509297 -0.509276 -0.48345 -0.544199 -0.56048 -0.559015 -0.492841 -0.485243 -0.488887 
-0.496637 -0.498813 -0.500989 -0.498772 -0.498751 -0.500927 -0.50237 -0.511803 -0.511782 
-0.506637 -0.479274 -0.477059 -0.479234 -0.504232 -0.500359 -0.49961 -0.498132 -0.497383 
-0.545832 -0.54146 -0.494289 -0.492056 -0.498342 -0.499059 -0.501248 -0.511332 -0.474946 
-0.510387 -0.510366 -0.511077 -0.510323 -0.508103 -0.508082 -0.508061 -0.508039 -0.508018 
-0.507264 -0.507243 -0.550063 -0.546393 -0.544911 -0.544888 -0.542678 -0.494442 -0.491454 
-0.494402 -0.486962 -0.50145 -0.514563 -0.472028 -0.514365 -0.515819 -0.515798 -0.514301 
-0.51428 -0.513521 -0.5135 -0.512004 -0.513458 -0.513436 -0.51194 -0.556504 -0.552811 
-0.551321 -0.548362 -0.547606 -0.493126 -0.49012 -0.492339 -0.493066 -0.489313 -0.502361 
-0.514108 -0.516325 -0.519286 -0.468292 -0.468273 -0.55479 -0.551075 -0.55179 -0.493197 
-0.49468 -0.491655 -0.492386 -0.48861 -0.502495 -0.515066 -0.515045 -0.521026 -0.464493 
-0.558236 -0.556727 -0.555219 -0.554453 -0.55443 -0.509228 -0.504671 -0.500851 -0.497807 
-0.495519 -0.486351 -0.509223 -0.509202 -0.508427 -0.568479 -0.566961 -0.563948 -0.560187 
-0.558669 -0.558647 -0.509321 -0.500914 -0.487828 -0.459626 -0.471674 -0.47469 -0.476851 
-0.568911 -0.565128 -0.504766 -0.488523 -0.45027 -0.453306 -0.456342 -0.576209 -0.575429 
-0.570867 -0.494576 -0.495326 -0.497614 -0.506646 -0.502012 -0.488899 -0.425724 -0.425707 
-0.431071 -0.451503 -0.454558 -0.459917 -0.4937 -0.499853 -0.489579 -0.482578 -0.454264 
-0.455019 -0.451767 -0.504437 -0.504417 -0.49959 -0.500348 -0.457801 -0.460116 -0.460097 
-0.452941 -0.509803 -0.509783 -0.462894 -0.437684 -0.437667 -0.514408 -0.509663 -0.440555 
-0.439512 -0.465293 -0.448383 -0.466473 -0.492787 -0.448016 -0.462034 -0.454066 -0.495666 
-0.455462 -0.462345 -0.454332 -0.498546 -0.45019 -0.455002 -0.463434 -0.456983 0.878298 
0.816097 -0.64723 -0.648052 -0.653393 -0.64507 -0.650524 -0.651045 -0.648541 -0.653483 
-0.654315 -0.656722 -0.608721 -0.663747 -0.664018 -0.628502 -0.610812 -0.651105 -0.651967 
-0.619266 -0.605634 -0.589416 -0.584097 -0.606974 -0.582053 -0.579442 1.03379 1.02901 
0.992225 0.993346 1.07639 -0.61401 -0.611217 -0.606565 -0.608342 -0.603771 -0.624164 
-0.6291 -0.619099 -0.609469 -0.625221 -0.600221 -0.635599 -0.611506 -0.608627 -0.619291 
1.08963 1.0403 -0.63188 -0.648991 1.0257 -0.628531 -0.645444 -0.606266 -0.615873 
-0.640489 0.056038 0.0391543 0.813152 0.797342 0.773286 0.742308 0.691839 0.670919 
0.66275 0.648206 0.639791 0.852014 0.844857 0.819325 0.866772 0.859619 0.833333 
0.208357 0.889191 0.872278 0.224936 0.196686 0.242235 0.244641 0.217787 0.549 
0.520908 0.499127 0.533141 0.522371 0.505841 0.629749 0.607418 0.591608 0.587954 
0.490997 -0.542444 -0.539699 -0.569703 0.619252 0.616208 0.593763 0.571819 0.589742 
0.586185 0.56984 0.571858 0.505807 0.484812 0.573924 0.523765 0.50158 0.479894 
-0.696749 -0.67334 0.542208 0.508472 0.492127 0.543964 -0.579099 -0.576853 -0.585575 
-0.588814 -0.59529 -0.592898 -0.585416 -0.578245 -0.585411 -0.576263 -0.583299 -0.584446 
-0.596773 -0.582412 -0.589396 1.19633 -0.585487 -0.5874 -0.583374 -0.585354 -0.547999 
-0.56451 -0.546361 -0.567509 -0.549312 -0.565776 -0.563996 -0.566947 1.03074 -0.569898 
1.03144 0.527607 0.510308 0.493561 0.476874 0.464336 0.451799 0.421009 0.411747 
0.395495 0.370654 0.367067 0.3515 -0.572849 1.07872 1.04574 1.0139 1.00958 
0.541699 0.524368 0.315787 0.305921 0.295849 0.279118 0.268942 0.250865 0.237081 
0.22516 0.213238 0.199914 0.188087 0.177474 0.165552 -0.5758 1.07527 1.05179 
1.01957 1.00623 0.537794 0.520716 0.508178 0.301147 0.29369 0.288266 0.278168 
0.259862 0.246003 0.234082 0.222161 0.208765 0.19556 0.183828 0.172096 0.159269 
-0.578752 1.1165 1.10238 1.06783 0.966811 0.970868 0.542637 0.52576 0.509268 
0.17031 0.158483 0.147633 0.133067 -0.581703 1.13452 1.09883 1.06434 0.999757 
0.986035 0.972313 0.55202 0.535063 0.144634 0.130997 -0.572922 -0.584654 1.12352 
1.11998 1.01491 0.991602 0.977751 0.544366 0.523502 0.140707 -0.575873 -0.587605 
1.09893 1.10584 1.03083 1.01657 0.536944 0.520427 0.136827 -0.5837 -0.595526 
1.10229 1.01756 1.01299 0.538112 0.525683 -0.596695 -0.603495 1.02813 1.02366 
0.539405 0.526868 0.138936 -0.599719 -0.606494 1.08847 1.03307 1.0288 1.03433 
0.523426 0.511203 0.50299 0.475363 0.157785 0.147439 0.134391 -0.597571 -0.604451 
1.01084 1.00649 0.992768 0.51616 0.504041 0.488103 0.461693 0.155943 0.146488 
0.134083 -0.60057 -0.602361 0.48508 0.462298 0.433999 0.416644 0.157267 -0.59358 
-0.600223 0.471079 0.455838 0.431162 0.416869 -0.608264 0.419078 0.411058 0.402865 
0.406361 0.394724 0.386004 0.379917 0.373698 0.358827 0.344152 0.322457 0.295862 
0.288923 0.283708 0.266716 0.148345 -0.611215 0.254589 0.25215 0.163995 0.151898 
-0.609005 0.257103 0.249223 0.239318 0.14728 -0.617117 0.248099 0.238075 0.221407 
0.205583 0.174058 -0.620069 0.252427 0.2351 0.224863 0.211447 0.186487 0.16782 
0.149882 -0.62302 0.225139 0.208472 0.199461 0.183536 0.167163 0.149943 -0.625971 
-0.628922 -0.631873 -0.634825 -0.626044 -0.632424 -0.635352 -0.611186 -0.185928 -0.197031 
-0.209941 -0.219237 -0.228361 -0.241444 -0.642555 -0.649077 -0.193691 -0.205052 -0.218334 
-0.22586 -0.235135 -0.246324 -0.651124 -0.646629 -0.602684 -0.178644 -0.186859 -0.196549 
-0.255571 -0.267023 -0.28087 -0.653358 -0.16277 -0.173106 -0.181572 -0.269904 -0.281356 
-0.295316 -0.629068 -0.161225 -0.174472 -0.181168 -0.270434 -0.277147 -0.293157 -0.299525 
-0.606459 -0.622644 -0.161145 -0.172597 -0.293583 -0.299821 -0.321473 -0.335751 -0.577401 
-0.574706 -0.162534 -0.173896 -0.293966 -0.300074 -0.324354 -0.338654 -0.589581 -0.581977 
-0.145336 -0.152675 -0.338687 -0.350139 -0.600585 -0.597133 -0.59409 -0.151378 -0.327313 
-0.591875 -0.598396 -0.156948 -0.330171 -0.589757 -0.591487 -0.583815 -0.141193 -0.155515 
-0.161184 -0.310306 -0.313787 -0.3196 -0.592661 -0.118919 -0.131378 -0.145407 -0.155526 
-0.16402 -0.30048 -0.31658 -0.32235 -0.325387 -0.60575 -0.135502 -0.175031 -0.187771 
-0.279611 -0.290887 -0.297166 -0.586925 -0.603584 -0.141022 -0.179397 -0.188928 -0.236506 
-0.249239 -0.262241 -0.585013 -0.596465 -0.142576 -0.185399 -0.191721 -0.230263 -0.243121 
-0.254056 -0.26716 -0.573837 -0.575637 -0.121241 -0.144145 -0.189953 -0.201405 -0.207405 
-0.218594 -0.233703 -0.240973 -0.256426 -0.576652 -0.587841 -0.114893 -0.122945 -0.130688 
-0.145668 -0.189478 -0.200753 -0.210219 -0.23458 -0.250094 -0.259284 -0.598539 -0.605107 
-0.0787622 -0.090835 -0.100171 -0.11233 -0.123519 -0.235413 -0.611725 -0.127498 -0.196831 
-0.208192 -0.594487 -0.621148 -0.632786 -0.130334 -0.199689 -0.21105 -0.60725 -0.608706 
-0.615179 -0.206167 -0.210289 -0.628082 -0.20366 -0.211272 -0.630963 -0.206496 -0.215918 
-0.639046 -0.207544 -0.641949 -0.210358 -0.227332 -0.639605 -0.201984 -0.204798 -0.640074 
-0.203406 -0.209402 -0.641237 -0.642021 -0.208207 -0.21405 -0.225411 -0.23479 -0.638785 
-0.639676 -0.209214 -0.216908 -0.228269 -0.237626 -0.636285 -0.632267 -0.229187 -0.240462 
-0.249625 -0.265212 -0.62502 -0.230061 -0.24125 -0.25244 -0.26585 -0.253098 -0.266444 
-0.632529 -0.644261 -0.258069 -0.271522 -0.282798 -0.294073 -0.305349 -0.316624 -0.327899 
-0.339175 -0.35045 -0.361726 -0.379231 -0.393965 -0.405507 -0.63548 -0.636357 -0.256485 
-0.274359 -0.283263 -0.291994 -0.298137 -0.31157 -0.32802 -0.339209 -0.356175 -0.37066 
-0.378899 -0.39026 -0.401622 -0.627718 -0.628853 -0.226635 -0.240336 -0.247569 -0.254644 
-0.399772 -0.414895 -0.430207 -0.445708 -0.62035 -0.621757 -0.235802 -0.247629 -0.259456 
-0.266538 -0.402676 -0.417822 -0.433158 -0.602193 -0.238777 -0.250604 -0.459467 -0.475577 
-0.600159 -0.611262 -0.46249 -0.478626 -0.607822 -0.614055 -0.485994 -0.605745 -0.603625 
-0.605142 -0.225336 -0.449296 -0.489572 -0.119549 -0.156249 -0.165465 -0.177482 -0.189653 
-0.198715 -0.207621 -0.160261 -0.170955 -0.183229 -0.206432 -0.575492 -0.605513 -0.604978 
-0.627496 -0.619737 -0.599134 -0.604536 -0.601609 -0.596275 -0.597605 -0.602648 -0.57228 
-0.573798 -0.58605 -0.581213 -0.589771 -0.59576 -0.593533 -0.598206 -0.606424 -0.293417 
-0.301776 -0.310136 -0.583238 -0.59787 -0.293704 -0.302016 -0.320599 -0.581633 -0.596572 
-0.291043 -0.29945 -0.304107 -0.613737 -0.625291 -0.147378 -0.15488 -0.144808 -0.153178 
-0.48143 -0.143114 -0.151476 -0.471597 -0.14057 -0.148885 -0.480277 -0.495918 -0.139727 
-0.147191 -0.481078 -0.494161 -0.1372 -0.145498 -0.479341 -0.492405 -0.136341 -0.143805 
-0.47509 -0.482711 -0.133831 -0.141257 -0.470578 -0.483525 -0.132146 -0.139572 -0.482168 
-0.489952 0.0746683 -0.145313 -0.497257 -0.499409 0.0762501 -0.143628 -0.517481 0.530623 
0.0777842 -0.141944 -0.496351 -0.507502 0.532458 0.064109 -0.140259 -0.488775 -0.493995 
0.531603 -0.138574 -0.478787 -0.478355 -0.143445 -0.151741 -0.479717 -0.479356 -0.141769 
-0.150056 -0.15842 -0.167838 -0.472512 -0.474843 -0.141799 -0.149263 -0.476127 -0.475824 
0.559893 0.557804 0.549717 -0.468961 -0.468875 0.561707 -0.154253 -0.461992 0.554896 
0.0980904 -0.15255 -0.452335 0.560836 0.550206 0.550911 0.110013 0.101103 0.0611327 
-0.167796 -0.448227 -0.448225 0.593008 0.573006 0.553942 0.551943 0.112303 0.103794 
-0.166077 -0.414699 -0.426736 -0.438926 -0.441741 0.582504 0.572034 0.552971 0.553681 
0.0967582 0.0884575 -0.171936 -0.41979 -0.427331 -0.437207 -0.442412 -0.597467 0.598255 
0.581484 0.573781 0.0985628 0.0906086 -0.202935 -0.417418 -0.420329 -0.42562 -0.595632 
0.593757 0.580138 0.572477 0.100776 0.0931816 -0.191235 -0.41259 -0.415681 -0.421099 
-0.423909 -0.597381 0.614227 0.600385 0.586704 0.575978 0.102172 0.0942178 0.0865964 
-0.197095 -0.204674 -0.214779 -0.225046 -0.228826 -0.407798 -0.413229 -0.418575 -0.602356 
0.603677 0.596055 0.103549 0.0956372 0.0877255 0.0795138 -0.197721 -0.205381 -0.213041 
-0.220701 -0.374716 -0.384758 -0.392627 -0.398196 -0.406022 -0.604052 0.599229 0.588801 
0.0898727 0.0812991 -0.220316 -0.229275 -0.237016 -0.372941 -0.385178 -0.39309 -0.398711 
-0.40658 -0.598625 0.60094 0.596295 0.0916772 0.0834036 -0.245943 -0.25831 -0.269533 
-0.353762 -0.363784 -0.36967 -0.379778 -0.387774 -0.596759 0.605594 0.601242 0.3994 
0.389663 0.382003 0.376292 0.366683 0.357345 0.346264 0.0938535 0.0855276 0.0778597 
-0.242706 -0.253498 -0.262913 -0.351957 -0.359911 -0.367866 -0.37582 -0.383774 -0.609335 