# vtk DataFile Version 4.2
vtk output
ASCII
DATASET POLYDATA
POINTS 6294 float
-4.84538 -3.6055 1.10877 -4.84528 -3.58677 1.10889 -4.84025 -3.56795 1.09093 
-4.78392 -3.52679 1.06049 -1.5085 0.908932 0.2862 -1.50515 0.910711 0.285388 
-1.50513 0.915367 0.285417 -4.3853 0.6827 0.979546 -4.34302 0.691807 0.96934 
-4.34293 0.708562 0.969447 -4.30288 0.71756 0.959781 -4.26172 0.725997 0.949841 
-4.26162 0.742406 0.949945 -4.22269 0.750776 0.940545 -4.2226 0.76702 0.940649 
-4.2225 0.783264 0.940753 -4.22232 0.815751 0.94096 -4.22223 0.831994 0.941063 
-4.14668 0.830686 0.922688 -4.10886 0.837671 0.913549 -1.52288 0.898697 0.28541 
-1.51622 0.897793 0.283784 -1.50956 0.896831 0.282157 -1.50732 0.899612 0.281634 
-1.50066 0.898556 0.280007 -4.60371 0.723237 1.01684 -4.55704 0.732472 1.00574 
-4.38065 0.716649 0.963422 -4.25749 0.709664 0.933904 -4.2186 0.718365 0.924666 
-4.21851 0.734609 0.924769 -4.18072 0.743042 0.915795 -4.21832 0.767096 0.924977 
-4.21823 0.783339 0.92508 -4.18036 0.807372 0.916206 -4.18027 0.823455 0.916308 
-4.14249 0.830761 0.907327 -4.10472 0.837745 0.898343 -1.59146 0.917374 0.297687 
-1.5848 0.916995 0.296091 -1.56265 0.908772 0.290728 -1.54163 0.896269 0.285603 
-1.52835 0.890036 0.282377 -1.52169 0.889245 0.280779 -1.51504 0.888397 0.27918 
-4.79625 0.740423 1.04614 -4.17622 0.791365 0.900586 -1.56472 0.901677 0.286726 
-1.5437 0.894205 0.28172 -1.53043 0.888042 0.278549 -1.52378 0.887294 0.276979 
-1.52045 0.889267 0.276208 -1.51711 0.891212 0.275438 -4.54704 0.856456 0.9724 
-4.37108 0.835354 0.9315 -1.61657 0.903785 0.294293 -1.60436 0.909581 0.291509 
-1.54692 0.883309 0.27801 -1.63081 0.884591 0.292723 -1.63078 0.889811 0.292756 
-1.63075 0.895032 0.29279 -1.61081 0.900351 0.288291 -1.64924 0.899666 0.292233 
-1.64481 0.901608 0.291256 -1.64478 0.906895 0.29129 -1.64145 0.90963 0.290566 
-1.63262 0.908062 0.288578 -1.74591 0.928293 0.308895 -1.73599 0.926793 0.306701 
-1.74145 0.936516 0.307977 -1.72713 0.931662 0.304791 -1.68643 0.907071 0.295655 
-1.66882 0.899391 0.291723 -1.66109 0.899 0.290022 -1.65227 0.897711 0.288072 
-1.73452 0.921135 0.30118 -1.7301 0.923607 0.300243 -1.7158 0.918772 0.297117 
-1.67182 0.89729 0.287456 -1.65971 0.893663 0.284814 -1.65529 0.895718 0.283874 
-1.64648 0.89441 0.281961 -1.73861 0.908028 0.296779 -1.72871 0.906637 0.294669 
-4.18241 1.07633 0.801568 -4.67351 -3.06469 0.839201 -4.62493 -3.01211 0.829864 
-4.22885 -3.39176 0.717738 -4.47624 -3.61347 0.74769 -2.94311 1.06736 0.48356 
-2.94305 1.07834 0.48363 -2.94299 1.08932 0.4837 -2.96036 1.10815 0.487045 
-2.92281 1.05979 0.469765 -2.92275 1.07069 0.469835 -2.92268 1.0816 0.469905 
-2.94004 1.10035 0.473176 -2.93998 1.11133 0.473246 -3.00807 1.08714 0.475003 
-2.95473 1.07508 0.465498 -2.91988 1.07074 0.459314 -2.85223 1.08336 0.447465 
-2.82064 1.07933 0.44186 -2.77384 1.06789 0.433514 -2.69986 1.04319 0.420273 
-3.10074 1.11699 0.480831 -3.02357 1.09521 0.467356 -2.95182 1.07513 0.454831 
-2.91701 1.07079 0.448792 -2.84944 1.08341 0.437227 -2.8016 1.0718 0.428889 
-2.75593 1.0608 0.42093 -2.66901 1.02986 0.405706 -4.45008 -3.05324 0.666868 
-4.58758 -3.13807 0.689418 -4.73491 -3.22897 0.713578 -3.13794 1.11056 0.476276 
-3.09773 1.10534 0.469462 -3.05861 1.10024 0.462832 -3.02058 1.09526 0.456386 
-2.69468 1.03333 0.401013 -2.59918 0.998021 0.384661 -2.54816 0.983156 0.375953 
-2.53617 0.986702 0.37396 -4.63072 -3.15541 0.679714 -3.19665 1.12455 0.475088 
-3.13481 1.11062 0.464813 -3.11416 1.11372 0.461438 -2.53374 0.986745 0.365029 
-4.48536 -3.05119 0.640261 -4.53102 -3.06721 0.647472 -3.2151 1.13366 0.466904 
-3.17282 1.12806 0.460078 -3.13162 1.12255 0.453426 -2.50642 0.97474 0.352016 
-4.57311 -3.10163 0.637284 -4.4805 -3.01573 0.623421 -3.21188 1.13372 0.45509 
-4.52141 -3.03127 0.613184 -4.30283 -2.85493 0.581149 -3.20866 1.13377 0.443275 
-4.66002 -3.13586 0.616432 -4.471 -2.98019 0.589514 -3.22702 1.14289 0.434726 
-2.12603 0.808609 0.268978 -4.65515 -3.13577 0.59857 -4.55853 -3.04711 0.585267 
-3.46064 1.0816 0.456557 -3.46056 1.09497 0.456642 -3.43462 1.09862 0.452925 
-3.31334 1.15507 0.435832 -2.09282 0.793175 0.257115 -4.55387 -3.06511 0.567696 
-4.50719 -3.01313 0.561524 -3.56262 1.12047 0.458721 -3.50872 1.11427 0.451118 
-3.4828 1.11815 0.447513 -3.31 1.15513 0.423546 -3.24212 1.13963 0.413918 
-2.07582 0.785741 0.247838 -4.45715 -2.99763 0.538202 -4.41269 -2.94762 0.532507 
-4.28492 -2.83768 0.515899 -3.67312 1.13383 0.461001 -3.64401 1.13761 0.457064 
-3.61489 1.14113 0.453126 -3.28407 1.14587 0.408121 -3.23885 1.13968 0.40192 
-2.0739 0.785775 0.240791 -3.72842 1.15517 0.455114 -3.2582 1.13662 0.392887 
-3.21411 1.13078 0.387023 -3.72458 1.15523 0.441023 -3.2549 1.13668 0.380793 
-3.21086 1.13084 0.375117 -3.00953 1.18447 0.349736 -2.97194 1.17808 0.344881 
-3.75182 1.16652 0.43086 -3.25161 1.13674 0.3687 -3.20762 1.13089 0.36321 
-2.95184 1.16997 0.33181 -2.10673 0.79761 0.22451 -4.62573 -3.09823 0.491637 
-3.74794 1.16658 0.416637 -3.24831 1.1368 0.356606 -3.22577 1.13992 0.35393 
-2.966 1.17818 0.323098 -2.08872 0.789712 0.215321 -4.57245 -3.06289 0.468428 
-4.62076 -3.07963 0.473894 -3.80607 1.18908 0.409739 -3.22257 1.12754 0.341853 
-3.20113 1.13101 0.339398 -2.96303 1.17824 0.312206 -2.07929 0.786045 0.207286 
-4.66531 -3.11536 0.46129 -3.67932 1.14468 0.381251 -3.35823 1.15916 0.345562 
-3.26421 1.13359 0.334903 -3.2193 1.1276 0.329855 -3.19788 1.13107 0.327492 
-2.96006 1.17829 0.301315 -2.05495 0.774974 0.197599 -4.61102 -3.07945 0.438171 
-3.64672 1.1343 0.364124 -3.3548 1.15922 0.33297 -3.28328 1.14287 0.325181 
-3.23842 1.13697 0.320326 -3.21596 1.14009 0.317937 -2.06796 0.782412 0.192236 
-3.61418 1.12393 0.347245 -3.64286 1.14871 0.350376 -3.6423 1.24912 0.351017 
-3.55701 1.22911 0.342079 -3.35136 1.15928 0.320378 -3.25756 1.13371 0.310524 
-3.55404 1.10349 0.327803 -3.61036 1.13821 0.333619 -3.52622 1.12112 0.325171 
-3.49908 1.20728 0.323082 -3.27665 1.13026 0.300528 -3.2319 1.12455 0.296059 
-3.44385 1.10535 0.304242 -3.4437 1.13233 0.304414 -3.46913 1.15579 0.306987 
-3.49562 1.17989 0.309666 -3.4689 1.1966 0.307248 -3.06105 1.1854 0.268498 
-3.04186 1.18826 0.266698 -3.05795 1.18545 0.257122 -3.01968 1.17939 0.253612 
-2.98248 1.17349 0.2502 -2.06028 0.775211 0.163871 -2.04539 0.775144 0.16252 
-3.05485 1.18551 0.245746 -2.05093 0.771576 0.156125 -2.02122 0.764069 0.153505 
-3.93161 -3.14806 0.27706 -3.93152 -3.13246 0.277159 -3.96557 -3.14676 0.279861 
-3.93135 -3.10124 0.277359 -3.96539 -3.11524 0.280062 -3.9653 -3.09948 0.280163 
-4.39668 -2.99655 0.316341 -4.39658 -2.97887 0.316454 -4.39648 -2.96118 0.316567 
-4.44114 -2.97618 0.320137 -4.48686 -2.99156 0.323791 -3.53896 1.17358 0.274353 
-3.382 1.1526 0.261302 -3.30992 1.13666 0.255266 -3.26326 1.13049 0.251386 
-3.24095 1.13401 0.249576 -4.39202 -2.99647 0.299275 -4.39192 -2.97878 0.299388 
-4.43653 -2.99399 0.302764 -4.43643 -2.9761 0.302878 -4.43633 -2.95821 0.302993 
-3.56279 1.18432 0.263098 -3.35419 1.1429 0.246541 -3.30652 1.13672 0.242779 
-3.25991 1.13055 0.239101 -3.21542 1.12485 0.235591 -4.43203 -3.02968 0.285278 
-4.43193 -3.01179 0.285392 -3.67457 1.17073 0.257935 -3.61638 1.16353 0.253591 
-3.67441 1.19993 0.258121 -3.67433 1.21454 0.258214 -3.559 1.19847 0.249595 
-3.47758 1.18021 0.243462 -3.37503 1.15273 0.235708 -3.32741 1.14666 0.232153 
-3.21205 1.13744 0.223577 -3.21198 1.14997 0.223657 -3.76272 1.17484 0.25027 
-3.73203 1.17863 0.248161 -3.67073 1.17079 0.243844 -3.58411 1.15289 0.237697 
-3.20876 1.1375 0.211484 -3.20869 1.15003 0.211564 -3.75877 1.17491 0.235781 
-3.72811 1.1787 0.233805 -3.69746 1.18222 0.231826 -3.60883 1.16366 0.225912 
-3.20546 1.13756 0.19939 -3.20539 1.15009 0.19947 -3.75482 1.17498 0.221293 
-3.81896 1.2136 0.225469 -3.20216 1.13762 0.187296 -3.17999 1.14073 0.185964 
-3.78347 1.1869 0.208735 -3.72029 1.17884 0.205093 -3.62976 1.16003 0.199825 
-3.60129 1.1638 0.198234 -3.22095 1.147 0.176519 -3.68591 1.16769 0.189062 
-3.56924 1.13894 0.182742 -3.48618 1.12183 0.178266 -3.21762 1.14706 0.16433 
-3.05012 1.17152 0.155696 -3.5655 1.13901 0.169026 -3.2143 1.14711 0.15214 
-3.047 1.17158 0.144233 -3.59005 1.14965 0.156623 -3.23298 1.1565 0.140979 
-3.61454 1.1603 0.143974 -3.70447 1.20888 0.147859 -4.19531 1.34519 0.151873 
-3.82818 1.24188 0.138227 -3.86155 1.27003 0.139591 -4.35997 1.40722 0.141004 
-4.11022 1.34933 0.132884 -4.22708 1.34296 0.119909 -4.35527 1.4073 0.123746 
-4.35056 1.40739 0.106488 -3.91433 1.20097 0.0801442 -4.02142 1.25531 0.0824188 
-3.14736 1.12888 0.0659084 -3.12649 1.13233 0.0655562 -3.91014 1.20105 0.0647828 
-3.18772 1.14759 0.054624 -3.14402 1.14137 0.0539902 -3.97655 1.22617 0.0502323 
-3.20619 1.15697 0.0426951 -3.93702 1.21372 0.03431 -3.22564 1.1668 0.030582 
-3.93279 1.21379 0.018793 -3.19949 1.15709 0.018124 -3.13421 1.14154 0.0179975 
-3.89358 1.1695 0.00313367 -3.31209 1.18037 0.0055234 -3.28824 1.18353 0.00563885 
-3.15265 1.15103 0.00597312 -3.15258 1.16356 0.00605311 -3.99562 1.23937 -0.0126792 
-3.3086 1.18043 -0.00727401 -3.28478 1.18359 -0.00705348 -3.12753 1.16653 -0.00583897 
-3.08616 1.16044 -0.00552963 -4.06663 1.26634 -0.029309 -3.23497 1.15093 -0.0193571 
-3.2349 1.16387 -0.0192745 -3.12426 1.16659 -0.0178366 -3.14584 1.18875 -0.017974 
-4.10138 1.28042 -0.0460638 -3.18624 1.13186 -0.0311805 -3.16454 1.13537 -0.0307833 
-3.18603 1.17006 -0.0309368 -3.18596 1.1828 -0.0308555 -4.02076 1.25323 -0.0609183 
-3.32298 1.1643 -0.0463084 -3.25191 1.148 -0.0448654 -3.11807 1.10453 -0.0422284 
-3.09742 1.10817 -0.0417568 -3.13946 1.15126 -0.0424011 -3.161 1.17333 -0.042731 
-3.97836 1.23967 -0.0760081 -3.31947 1.16436 -0.0592155 -3.27109 1.15753 -0.0579905 
-3.15796 1.12285 -0.055243 -3.11473 1.11702 -0.0541466 -3.11445 1.16676 -0.0538292 
-4.01194 1.26997 -0.0928151 -3.97386 1.27257 -0.0916309 -3.29131 1.15422 -0.0714303 
-3.26763 1.15759 -0.0706828 -3.13273 1.17645 -0.0664282 -3.96963 1.25623 -0.107568 
-3.93365 1.25941 -0.106283 -3.28782 1.15428 -0.0842277 -3.24161 1.14819 -0.0826406 
[...]
POINT_DATA 6294
SCALARS z_coord float
LOOKUP_TABLE default
1.10877 1.10889 1.09093 1.06049 0.2862 0.285388 0.285417 0.979546 0.96934 
0.969447 0.959781 0.949841 0.949945 0.940545 0.940649 0.940753 0.94096 0.941063 
0.922688 0.913549 0.28541 0.283784 0.282157 0.281634 0.280007 1.01684 1.00574 
0.963422 0.933904 0.924666 0.924769 0.915795 0.924977 0.92508 0.916206 0.916308 
0.907327 0.898343 0.297687 0.296091 0.290728 0.285603 0.282377 0.280779 0.27918 
1.04614 0.900586 0.286726 0.28172 0.278549 0.276979 0.276208 0.275438 0.9724 
0.9315 0.294293 0.291509 0.27801 0.292723 0.292756 0.29279 0.288291 0.292233 
0.291256 0.29129 0.290566 0.288578 0.308895 0.306701 0.307977 0.304791 0.295655 
0.291723 0.290022 0.288072 0.30118 0.300243 0.297117 0.287456 0.284814 0.283874 
0.281961 0.296779 0.294669 0.801568 0.839201 0.829864 0.717738 0.74769 0.48356 
0.48363 0.4837 0.487045 0.469765 0.469835 0.469905 0.473176 0.473246 0.475003 
0.465498 0.459314 0.447465 0.44186 0.433514 0.420273 0.480831 0.467356 0.454831 
0.448792 0.437227 0.428889 0.42093 0.405706 0.666868 0.689418 0.713578 0.476276 
0.469462 0.462832 0.456386 0.401013 0.384661 0.375953 0.37396 0.679714 0.475088 
0.464813 0.461438 0.365029 0.640261 0.647472 0.466904 0.460078 0.453426 0.352016 
0.637284 0.623421 0.45509 0.613184 0.581149 0.443275 0.616432 0.589514 0.434726 
0.268978 0.59857 0.585267 0.456557 0.456642 0.452925 0.435832 0.257115 0.567696 
0.561524 0.458721 0.451118 0.447513 0.423546 0.413918 0.247838 0.538202 0.532507 
0.515899 0.461001 0.457064 0.453126 0.408121 0.40192 0.240791 0.455114 0.392887 
0.387023 0.441023 0.380793 0.375117 0.349736 0.344881 0.43086 0.3687 0.36321 
0.33181 0.22451 0.491637 0.416637 0.356606 0.35393 0.323098 0.215321 0.468428 
0.473894 0.409739 0.341853 0.339398 0.312206 0.207286 0.46129 0.381251 0.345562 
0.334903 0.329855 0.327492 0.301315 0.197599 0.438171 0.364124 0.33297 0.325181 
0.320326 0.317937 0.192236 0.347245 0.350376 0.351017 0.342079 0.320378 0.310524 
0.327803 0.333619 0.325171 0.323082 0.300528 0.296059 0.304242 0.304414 0.306987 
0.309666 0.307248 0.268498 0.266698 0.257122 0.253612 0.2502 0.163871 0.16252 
0.245746 0.156125 0.153505 0.27706 0.277159 0.279861 0.277359 0.280062 0.280163 
0.316341 0.316454 0.316567 0.320137 0.323791 0.274353 0.261302 0.255266 0.251386 
0.249576 0.299275 0.299388 0.302764 0.302878 0.302993 0.263098 0.246541 0.242779 
0.239101 0.235591 0.285278 0.285392 0.257935 0.253591 0.258121 0.258214 0.249595 
0.243462 0.235708 0.232153 0.223577 0.223657 0.25027 0.248161 0.243844 0.237697 
0.211484 0.211564 0.235781 0.233805 0.231826 0.225912 0.19939 0.19947 0.221293 
0.225469 0.187296 0.185964 0.208735 0.205093 0.199825 0.198234 0.176519 0.189062 
0.182742 0.178266 0.16433 0.155696 0.169026 0.15214 0.144233 0.156623 0.140979 
0.143974 0.147859 0.151873 0.138227 0.139591 0.141004 0.132884 0.119909 0.123746 
0.106488 0.0801442 0.0824188 0.0659084 0.0655562 0.0647828 0.054624 0.0539902 0.0502323 
0.0426951 0.03431 0.030582 0.018793 0.018124 0.0179975 0.00313367 0.0055234 0.00563885 
0.00597312 0.00605311 -0.0126792 -0.00727401 -0.00705348 -0.00583897 -0.00552963 -0.029309 -0.0193571 
-0.0192745 -0.0178366 -0.017974 -0.0460638 -0.0311805 -0.0307833 -0.0309368 -0.0308555 -0.0609183 
-0.0463084 -0.0448654 -0.0422284 -0.0417568 -0.0424011 -0.042731 -0.0760081 -0.0592155 -0.0579905 
-0.055243 -0.0541466 -0.0538292 -0.0928151 -0.0916309 -0.0714303 -0.0706828 -0.0664282 -0.107568 
-0.106283 -0.0842277 -0.0826406 -0.120859 -0.0970251 -0.0943594 -0.0907752 -0.0922831 -0.13617 
-0.131685 -0.128653 -0.108844 -0.10591 -0.102869 -0.0446014 -0.155065 -0.151687 -0.146845 
-0.145229 -0.139165 -0.120499 -0.11726 -0.114962 -0.0503979 -0.0496762 -0.0491826 -0.0484626 
-0.158578 -0.155312 -0.1507 -0.150607 -0.149062 -0.147571 -0.133091 -0.130683 -0.128138 
-0.0581135 -0.0575713 -0.056729 -0.0559377 -0.0563989 -0.176964 -0.171553 -0.167972 -0.169513 
-0.144389 -0.14065 -0.141506 -0.0614245 -0.0608385 -0.0605264 -0.0596682 -0.05963 -0.0570587 
-0.159613 -0.155455 -0.0691931 -0.0685599 -0.0676307 -0.0564975 -0.0558196 -0.0559615 -0.0557523 
-0.0557186 -0.0554513 -0.0550091 -0.0549757 -0.0547091 -0.0542678 -0.05406 -0.0540271 -0.0539942 
-0.0537286 -0.0536959 -0.0534887 -0.0532237 -0.053017 -0.0529845 -0.052952 -0.0525138 -0.0524815 
-0.0759431 -0.057326 -0.0572937 -0.0788892 -0.0781656 -0.0619345 -0.0621705 -0.08368 -0.0829111 
-0.0880231 -0.0875971 -0.0937545 -0.0941275 -0.0936787 -0.0932302 -0.0693625 -0.0989387 -0.0741557 
-0.0741259 -0.0738416 -0.107333 -0.105104 -0.104245 -0.0786485 -0.0783503 -0.110318 -0.109897 
-0.108041 -0.107621 -0.107201 -0.0854875 -0.0836117 -0.118436 -0.115989 -0.114146 -0.113206 
-0.0896373 -0.117774 -0.117737 -0.118224 -0.118187 -0.117627 -0.117172 -0.116717 -0.121642 
-0.12117 -0.120152 -0.120661 -0.121061 -0.121461 -0.120553 -0.119537 -0.118629 -0.117287 
-0.115075 -0.115041 -0.0958548 -0.0961482 -0.0954729 -0.350581 -0.126672 -0.126181 -0.125122 
-0.126109 -0.126528 -0.125469 -0.124979 -0.124943 -0.124454 -0.123057 -0.119846 -0.11811 
-0.10032 -0.099954 -0.0992515 -0.0977643 -0.379111 -0.123214 -0.122237 -0.121378 -0.121344 
-0.121311 -0.122267 -0.13084 -0.130426 -0.124907 -0.120923 -0.12165 -0.121618 -0.128802 
-0.129294 -0.127033 -0.12792 -0.127888 -0.127856 -0.126122 -0.124388 -0.12488 -0.134972 
-0.134125 -0.133551 -0.131755 -0.13091 -0.130879 -0.130034 -0.128647 -0.129023 -0.563087 
-0.556309 -0.543312 -0.519179 -0.524855 -0.502707 -0.492002 -0.486599 -0.486494 -0.476515 
-0.134639 -0.133628 -0.132757 -0.125099 -0.530055 -0.541734 -0.535654 -0.529727 -0.512766 
-0.496855 -0.491685 -0.49665 -0.501614 -0.5176 -0.523153 -0.528853 -0.53455 -0.48199 
-0.463285 -0.129529 -0.127915 -0.544966 -0.56262 -0.574989 -0.568641 -0.529191 -0.534621 
-0.546354 -0.540249 -0.52308 -0.512372 -0.51227 -0.51739 -0.528344 -0.528238 -0.557608 
-0.557496 -0.539276 -0.477916 -0.53797 -0.54371 -0.565472 -0.604694 -0.559817 -0.553698 
-0.608071 -0.546535 -0.546435 -0.546234 -0.556049 -0.55046 -0.559835 -0.554453 -0.542609 
-0.542517 -0.531935 -0.536573 -0.500793 -0.504886 -0.540282 -0.521547 -0.544002 -0.563342 
-0.563253 -0.573457 -0.552332 -0.566763 -0.571647 -0.566588 -0.57147 -0.579829 -0.595399 
-0.590023 -0.579566 -0.58456 -0.603407 -0.597915 -0.603229 -0.582364 -0.549041 -0.616881 
-0.616792 -0.600564 -0.575634 -0.53118 -0.515183 -0.534424 -0.542586 -0.526252 -0.518376 
-0.545887 -0.541605 -0.533562 -0.529505 -0.552906 -0.548765 -0.54869 -0.540487 -0.532511 
-0.51754 -0.510247 -0.528208 -0.513629 -0.509877 -0.506355 -0.535117 -0.524009 -0.516661 
-0.513306 -0.53432 -0.530421 -0.526763 -0.523345 -0.51275 -0.526402 -0.537069 -0.537001 
-0.540592 -0.533452 -0.5586 -0.547104 -0.536107 -0.522133 -0.505679 -0.499409 -0.525274 
-0.515096 -0.505679 -0.490449 -0.524638 -0.51505 -0.508581 -0.502496 -0.505355 -0.508495 
-0.493838 -0.482945 -0.491249 -0.491194 -0.485631 -0.496753 -0.496699 -0.499444 -0.504903 
-0.515943 -0.505573 -0.498862 -0.496731 -0.488186 -0.492468 -0.488635 -0.486699 -0.50896 
-0.494676 -0.488879 -0.48692 -0.523143 -0.513251 -0.489487 0.380269 0.412784 0.388908 
0.27318 0.258637 0.24451 0.232301 0.406726 0.383174 0.270409 0.255907 0.245053 
0.2342 0.397679 0.372138 0.216343 0.394752 0.371976 0.210991 0.197994 0.394812 
0.37177 0.263815 0.24006 0.221618 0.19661 0.185084 0.17477 0.164454 0.152358 
0.14134 0.388897 0.366303 0.266654 0.245678 0.151545 0.14123 0.129453 0.38891 
0.366053 0.251733 0.152578 0.141106 -0.616105 -0.62378 0.385959 0.368583 0.276695 
-0.618986 -0.610477 0.385901 0.371276 0.273646 0.114101 -0.621866 -0.62317 0.382926 
-0.626007 0.379951 -0.61266 -0.609119 0.376976 -0.639 0.376798 -0.0581801 -0.0700133 
-0.0820188 -0.627045 0.40074 0.38872 -0.041825 -0.0528249 -0.0643673 -0.0751205 0.394643 
0.382722 -0.0756427 -0.609767 0.391644 0.376902 -0.133393 -0.143781 -0.173538 -0.634869 
0.388646 0.37113 -0.128924 -0.137206 -0.146395 -0.156783 -0.176133 -0.647594 -0.643172 
0.382779 0.365406 -0.181702 -0.192168 -0.204225 -0.216526 -0.645122 0.385753 0.37696 
0.365228 -0.188897 -0.197964 -0.210285 -0.222859 -0.6426 0.385741 0.374009 0.362277 
-0.229273 -0.242191 -0.255382 -0.273265 -0.289553 -0.616617 -0.62321 -0.634942 -0.630651 
0.382789 -0.309397 -0.321129 -0.329973 -0.612833 -0.614429 -0.631418 0.379838 -0.3324 
-0.34483 -0.61981 -0.61074 -0.612194 0.394285 0.388619 0.37973 -0.622885 -0.640689 
0.400409 0.388582 -0.375943 -0.627203 0.394449 0.385607 -0.418611 -0.430437 -0.442264 
-0.454091 -0.461986 0.391498 0.379766 -0.476669 -0.484256 -0.495893 -0.503196 -0.619886 
-0.62123 0.391484 0.376814 -0.487768 -0.49969 -0.507348 -0.510458 -0.628439 0.42514 
0.40649 0.388509 -0.519092 -0.52215 -0.529499 -0.623441 -0.641716 -0.660665 0.422065 
0.403466 -0.563376 -0.576025 -0.606654 -0.619411 -0.638156 -0.669345 -0.689018 -0.582043 
0.415657 0.403537 -0.551456 -0.568719 -0.609863 -0.62262 -0.666309 -0.679411 -0.576193 
0.43348 0.421459 -0.595039 -0.653168 -0.616531 -0.56317 -0.581194 -0.5708 0.433799 
0.421679 -0.58231 -0.650557 -0.6245 -0.592149 -0.579582 -0.573256 0.43075 0.418631 
-0.575177 -0.597737 -0.577936 -0.571474 0.431138 0.415582 -0.593655 -0.590126 -0.591584 
0.428063 0.41584 -0.613151 -0.592759 -0.603225 0.444186 -0.610948 -0.595392 -0.596774 
0.448415 -0.597814 -0.599368 0.445233 -0.595667 -0.60789 -0.611569 -0.603605 0.463432 
-0.598742 -0.600436 -0.621739 -0.613146 -0.600348 -0.60172 0.452949 0.444109 -0.607116 
-0.60346 -0.604771 -0.596723 -0.593774 -0.590862 0.446284 0.434061 -0.604892 -0.622543 
-0.597849 -0.590287 0.443209 0.430986 -0.613317 -0.595975 -0.57979 0.443647 0.427911 
-0.621795 -0.683492 -0.654142 -0.613216 -0.577925 -0.575603 0.43706 0.421454 0.406191 
-0.58967 -0.601893 -0.639596 -0.561763 0.440905 0.428476 0.412792 -0.592744 -0.604967 
-0.63712 -0.560375 0.445076 0.428819 -0.595819 -0.613394 0.365998 0.353349 -0.598894 
-0.627474 0.368801 0.350167 -0.594943 1.05784 0.850794 0.823011 0.783466 0.764413 
0.745329 0.715037 0.697081 0.368526 0.352689 -0.598043 0.870513 0.834246 0.787143 
0.7675 0.748582 0.729638 0.729229 0.37147 0.352275 -0.595895 1.10695 1.02431 
0.942288 0.910809 0.888822 0.867094 0.719538 0.694803 0.682154 0.674992 0.368144 
0.349008 0.322708 0.310278 0.270925 0.161122 0.148692 -0.593694 -0.580714 0.980594 
0.938735 0.907325 0.653673 0.290232 0.278009 0.170424 -0.582693 -0.589821 0.976936 
0.935183 0.903841 0.287158 0.274935 0.167298 -0.590914 -0.582666 0.94048 0.288468 
0.165378 0.152841 0.141335 -0.588894 -0.58569 0.936893 0.283175 0.162225 0.149687 
-0.591995 -0.588714 0.154597 -0.580634 -0.593172 0.152629 -0.594451 -0.596325 -0.592406 
-0.605055 0.293155 0.280932 0.168506 0.157571 -0.595588 -0.597244 0.290081 0.169061 
0.155628 -0.59877 -0.600371 1.18349 1.16908 1.19945 1.14362 0.155839 -0.59453 
1.14329 1.15106 1.15573 0.305114 -0.584982 -0.592484 0.301788 -0.588191 -0.606652 
0.295966 0.18399 -0.5914 -0.604157 0.29267 -0.605692 -0.607366 0.289374 0.151984 
-0.607298 0.28376 0.153179 -0.604829 0.280493 0.152254 -0.597097 0.284175 0.151323 
1.17447 1.01739 0.963651 0.285612 0.148274 1.14393 0.993457 0.978766 0.983626 
0.161497 0.154142 -0.603159 0.96038 0.294909 0.158616 0.150155 -0.595104 0.93838 
0.288947 0.156769 0.146215 0.938298 0.914648 0.285528 0.153866 -0.585219 -0.59272 
0.925534 0.910989 0.303512 0.287 0.148986 -0.577869 -0.595902 0.921875 0.925363 
0.299994 0.283516 -0.57582 -0.58825 0.918217 0.940367 0.316091 -0.589616 -0.602265 
0.923516 0.936556 0.312504 -0.626654 -0.616606 0.988226 0.943846 0.31458 -0.654952 
-0.637314 0.994632 0.940112 0.313802 0.15001 -0.671821 -0.652996 0.990739 0.955425 
-0.649108 -0.637867 0.986847 0.971372 0.157956 -0.623648 0.993087 0.977449 0.297256 
0.157119 -0.603099 -0.621357 0.697003 0.296286 0.151958 -0.595631 -0.613263 0.750853 
0.735856 0.758641 0.750654 0.719368 0.696625 0.695398 0.700503 0.683784 0.659785 
0.629397 0.292628 0.149991 -0.586405 0.802095 0.803087 0.786927 0.762616 0.746633 
0.723042 0.713938 0.712038 0.687168 0.648559 0.61877 0.294366 0.147973 -0.579203 
0.618409 0.576769 0.560959 0.545148 0.529338 0.29341 0.145949 -0.587429 0.621008 
0.578763 0.56278 0.546797 0.52536 0.316608 0.284238 -0.595707 0.542777 0.526794 
0.510811 0.494828 0.309662 0.280542 -0.588349 -0.595358 0.512116 0.490808 0.479797 
0.299904 0.276847 -0.593033 -0.58443 0.492467 0.476828 0.46119 0.441149 0.296093 
0.275699 -0.585431 -0.587505 0.466784 0.455508 0.439348 0.307433 0.157224 0.143796 
-0.593871 -0.595784 0.306554 0.138752 -0.586558 -0.593654 0.31177 -0.567233 -0.575358 
0.144717 -0.563553 0.275837 0.253299 -0.571466 0.271986 0.249566 0.139448 -0.569551 
1.55744 1.49323 1.47776 1.46229 1.44681 0.219084 0.198437 0.163762 1.53695 
1.50483 -0.554273 1.53297 -0.543336 0.14123 0.144319 0.140834 0.1363 0.136002 
-0.574155 0.27501 0.247456 0.220131 0.195546 0.174817 0.155597 0.140928 0.131399 
0.115675 -0.577422 0.265074 0.238508 0.214213 0.191851 0.172694 0.152178 0.138585 
0.126898 0.112224 -0.54972 -0.562593 0.252963 0.229967 0.123413 0.108772 -0.537881 
-0.565832 0.276263 0.119929 0.106862 0.0935479 -0.561251 -0.574236 0.272008 0.116445 
0.103344 -0.559435 -0.572308 0.26497 0.266295 0.0840417 -0.547818 1.10044 0.261991 
0.23502 0.212341 0.0681606 0.0539143 0.0379943 0.0227055 -0.551027 0.253382 -0.560616 
-0.48504 -0.489688 -0.582206 -0.561136 -0.558307 -0.556256 -0.589947 -0.625818 0.312157 
-0.656338 0.418406 0.410521 -0.676388 0.555914 -0.651071 -0.652283 0.376378 -0.641176 
0.413842 0.410415 0.414096 0.401695 0.616688 0.620414 0.500546 0.438863 0.418277 
0.392074 0.402839 0.436392 0.448181 0.431267 0.576392 0.545215 0.483229 0.460895 
0.399322 0.436856 0.482186 0.477194 0.464092 0.395561 0.388834 -0.639367 0.449331 
0.440327 0.409172 0.402628 0.395907 -0.657133 0.435312 0.429917 0.425438 0.4206 
0.417884 0.419144 -0.661244 0.432185 0.426735 0.41042 0.415333 0.400181 0.374074 
0.346435 0.429058 0.423553 0.410567 0.403607 0.381478 0.357005 0.342883 0.454481 
0.441944 0.43302 0.420371 0.39944 0.381698 -0.561208 0.463865 0.418115 0.412012 
0.409289 0.399058 0.392267 0.381593 0.364023 0.3499 0.341942 0.453374 0.414819 
0.408656 0.395313 0.38197 0.371846 0.374593 0.357195 0.34321 0.335226 -0.562539 
0.401861 0.382121 0.329307 0.320517 0.401943 0.382025 0.338404 -0.633358 0.926345 
0.916308 0.903085 0.975345 0.123358 0.109084 0.0930548 0.0773599 0.0623633 0.0471334 
0.109799 0.0962061 0.0831631 0.0694412 0.0563113 0.0424993 0.139637 0.126018 0.113369 
0.0981611 0.0854212 0.0384167 0.0248243 0.01084 -0.018382 0.133564 0.121969 0.108705 
0.0962749 0.0843566 0.03472 0.0214677 -0.0508095 -0.0626002 -0.0765847 -0.0884016 -0.0997727 
-0.11324 -0.128113 -0.141706 -0.155298 0.154211 0.140904 0.127802 0.117232 -0.0413291 
-0.0552143 -0.0670142 -0.0781315 -0.0918534 -0.105575 -0.116628 -0.128659 -0.140494 -0.153716 
0.134165 -0.163402 -0.174463 -0.183432 -0.197773 0.130338 -0.161699 -0.175852 -0.184801 
-0.195266 0.12573 -0.17601 -0.194645 -0.210564 0.123631 -0.0753709 -0.0887135 -0.0997631 
-0.110466 -0.119473 -0.123121 -0.134948 -0.211622 -0.625584 0.122265 -0.0768555 -0.0879575 
-0.110089 -0.120145 -0.127305 -0.137923 -0.212713 0.805781 0.117776 -0.0532492 -0.0654493 
-0.0773908 -0.0881685 -0.130304 -0.138243 -0.215737 0.802393 0.114849 -0.0550858 -0.0662476 
-0.077041 -0.0884098 -0.128276 -0.14117 -0.218761 0.806185 0.136095 0.121987 -0.0443265 
-0.0561624 -0.0655175 -0.133741 -0.146848 -0.573195 0.810161 0.132269 0.119107 -0.0468595 
-0.057191 -0.135388 -0.147025 -0.207547 -0.571255 0.80671 0.132784 0.121554 -0.0493641 
-0.0588492 -0.139643 -0.147171 0.128896 0.11774 -0.0524647 -0.0618481 -0.13989 -0.151433 
0.125897 0.113975 -0.065592 -0.148297 -0.160219 -0.565549 -0.608586 0.144803 0.131322 
-0.0586661 -0.149897 -0.16478 -0.248156 -0.573479 -0.61174 0.142797 0.13097 -0.0350802 
-0.151448 -0.160143 -0.210108 -0.232162 0.140743 0.13055 -0.0380791 -0.0525412 -0.154399 
-0.163047 -0.213059 -0.224791 0.751647 0.167418 0.151741 0.139621 0.127501 -0.0405542 
-0.0549672 -0.145618 -0.2199 -0.233954 0.748227 0.728113 0.165499 0.149748 0.135659 
0.122824 -0.0440768 -0.145769 -0.222899 -0.250673 0.711257 0.710487 0.444265 0.43345 
0.422437 0.411213 0.395738 0.161165 0.146674 -0.0488935 -0.0618434 -0.147313 -0.236586 
0.720757 0.713459 0.449208 0.438269 0.427004 0.415623 0.399813 0.154714 0.141632 
-0.0376526 -0.148812 -0.160173 -0.227283 0.415862 0.395836 0.376155 0.357003 0.334917 
0.237341 0.16497 0.1486 -0.0417 -0.15167 -0.23262 0.526986 0.512725 0.512771 
0.518059 0.507857 0.487438 0.472127 0.44357 0.346258 0.331106 0.315954 0.297978 
0.291212 0.227523 -0.0436027 -0.13691 -0.145841 -0.221106 -0.24034 0.539418 0.519155 
0.535683 0.536637 0.514558 0.498213 0.349218 0.327295 0.312143 0.291421 0.274022 
0.254725 -0.0477475 -0.139861 -0.150169 -0.228634 -0.250797 0.477757 0.426906 0.415526 
0.296968 0.277389 0.16918 -0.0495527 -0.129822 -0.140105 -0.150265 -0.234001 0.310483 
0.283954 0.160354 -0.054443 -0.0643543 -0.0761811 -0.131466 -0.218057 0.309571 0.282889 
0.258258 0.1849 -0.0548593 -0.0673294 -0.0791562 -0.13437 -0.219138 0.299759 -0.0695424 
-0.0812744 -0.0920548 -0.103692 -0.117611 -0.226468 0.464673 0.307804 0.294771 -0.0724936 
-0.0851062 -0.0969329 -0.10876 -0.121751 -0.229622 0.306865 0.2878 -0.199953 -0.214093 
0.3028 0.28378 -0.157526 -0.16603 -0.182297 -0.203002 -0.215122 0.683601 0.645113 
0.284353 0.269042 -0.164992 -0.173588 -0.188645 -0.206051 -0.220243 -0.64622 0.621688 
0.618569 0.317244 0.295813 0.280502 0.265191 0.209791 0.188635 0.168771 -0.11639 
-0.130394 -0.15324 -0.167967 -0.178154 -0.646332 0.6042 0.60744 0.597153 0.580042 
0.316489 0.294817 0.263867 0.203842 0.195583 0.179239 -0.12122 -0.133124 -0.149202 
-0.181105 -0.649689 0.627071 0.328322 0.315646 0.290924 0.262462 0.209611 0.178574 
0.146529 0.01447 0.00220254 -0.0100329 -0.0212831 -0.0416481 -0.0543602 -0.0659974 -0.0768004 
-0.0874563 -0.0979312 -0.11036 -0.119551 -0.640792 0.317981 0.314795 0.298635 0.261102 
0.227251 0.213671 0.172672 0.143651 0.0885619 0.0713752 -0.0128437 -0.616834 0.477453 
0.442254 0.444764 0.432992 0.407687 0.38752 0.3678 0.345037 0.323201 0.232283 
0.222586 0.104194 0.084497 -0.0359575 0.500578 0.484419 0.458686 0.23771 0.47052 
0.450025 0.466542 0.0914306 0.0723023 0.0380709 0.0239964 0.0117325 3.64464e-05 -0.0119841 
-0.0236023 0.493696 0.435735 0.0879065 0.0682372 -0.0365092 0.436255 0.41716 0.164254 
0.152047 -0.0389093 0.181965 0.163233 0.147743 -0.0340508 -0.0456726 0.177661 -0.0493484 
-0.0505181 -0.0528944 0.133888 0.119526 0.105412 0.09218 0.0784541 0.0649803 0.05275 
-5.59725e-06 -0.0136728 -0.574946 -0.588301 0.113273 0.00294304 -0.0109962 -0.571916 -0.585271 
0.136951 0.1221 0.00538898 -0.00886821 -0.568886 -0.576628 0.116276 0.0996307 0.00812769 
-0.0054748 -0.565856 -0.579211 0.119866 -0.0171483 -0.573693 -0.581738 0.123456 -0.0139733 
-0.565202 -0.57868 -0.0101385 -0.0229894 -0.567521 -0.581123 -0.00673317 -0.0199314 -0.559086 
-0.572564 -0.00390851 -0.0172497 -0.561349 -0.580583 -0.00103342 -0.575054 -0.595025 0.0154792 
0.00123764 -0.58368 -0.597951 0.547639 0.525802 0.500793 0.00489069 -0.574483 -0.582699 
-0.0063349 -0.565529 -0.579524 0.622323 -0.00309705 -0.568071 -0.576349 0.563996 0.000140792 
-0.0141308 -0.559179 -0.567533 0.672616 -0.00925004 -0.556004 -0.569999 0.459196 -0.00561308 
-0.558453 -0.566824 0.010264 -0.0028305 -0.544236 -0.558098 0.458508 -0.000453228 -0.574468 
-0.576894 0.105958 -0.589068 -0.595641 -0.605694 -0.60964 -0.610395 -0.611409 -0.572561 
-0.576157 -0.577157 0.125421 0.110258 -0.591932 -0.600076 -0.604098 -0.608052 -0.611937 
-0.574775 -0.575786 0.466998 0.131098 0.11463 -0.598946 -0.60101 -0.59422 -0.601573 
-0.602321 -0.600316 -0.601477 -0.608579 0.15145 -0.00276255 -0.589061 -0.597641 -0.595412 
-0.599905 -0.60067 -0.601651 -0.602862 -0.606968 0.153612 0.13458 0.000269657 -0.600661 
-0.607846 -0.59586 -0.596945 -0.601123 0.268123 0.257444 0.230157 0.214994 0.213661 
0.164592 0.149627 0.134351 0.0674254 0.0500988 0.0333299 0.0180696 0.00397587 -0.0102959 