# vtk DataFile Version 4.2
vtk output
ASCII
DATASET POLYDATA
POINTS 7870 float
-2.79475 -1.17058 0.605765 -2.80922 -1.16738 0.609475 -2.83788 -1.19239 0.607353 
-2.85345 -1.18952 0.61128 -2.69105 -1.02607 0.571833 -2.78945 -1.17049 0.586322 
-2.78939 -1.16041 0.586386 -2.11793 -0.25044 0.427666 -1.41002 0.219356 0.256523 
-1.47015 0.405945 0.272821 -1.46791 0.409498 0.272294 -2.77231 -1.16351 0.573133 
-2.77226 -1.1535 0.573197 -2.6715 -1.01967 0.549742 -2.13159 -0.252363 0.424451 
-1.41115 0.215705 0.252954 -1.46899 0.40147 0.268454 -2.76968 -1.16347 0.563471 
-2.72511 -1.13232 0.553049 -2.12967 -0.252329 0.417403 -1.71145 0.10414 0.320105 
-1.40782 0.215161 0.248324 -1.58799 0.346219 0.292441 -1.48664 0.409342 0.268681 
-2.7815 -1.17035 0.557157 -2.76699 -1.15341 0.553873 -2.1045 -0.256565 0.404848 
-2.11999 -0.251317 0.408535 -1.69227 0.102233 0.310583 -1.40892 0.215744 0.244763 
-1.58668 0.346243 0.28761 -1.4877 0.401116 0.264735 -1.48546 0.404788 0.264237 
-2.76441 -1.16337 0.544147 -2.77879 -1.16023 0.5475 -2.08713 -0.261648 0.394274 
-2.09484 -0.25552 0.396108 -2.12583 -0.252261 0.403308 -2.11028 -0.243066 0.399777 
-2.13351 -0.238564 0.40519 -2.14898 -0.232983 0.408815 -1.60744 0.358616 0.287986 
-1.60741 0.363718 0.288018 -1.48981 0.402495 0.261089 -2.79062 -1.17718 0.540944 
-2.80609 -1.17444 0.544487 -2.0775 -0.26057 0.38563 -1.61051 0.360109 0.28408 
-1.61048 0.365229 0.284113 -1.50187 0.403289 0.259678 -1.50184 0.407946 0.259707 
-1.31948 0.379795 0.217978 -2.71472 -1.12232 0.515195 -2.68697 -1.09952 0.509159 
-2.04688 -0.256659 0.372371 -1.39785 0.213831 0.230735 -1.62019 0.363804 0.281635 
-2.71213 -1.12227 0.505715 -2.6988 -1.10622 0.502906 -1.98982 -0.249169 0.353548 
-1.76174 -0.120359 0.304379 -1.7617 -0.114589 0.304416 -1.76167 -0.108819 0.304452 
-1.63095 0.367868 0.279344 -3.53987 -1.74216 0.670858 -2.69629 -1.11594 0.493419 
-2.68186 -1.09943 0.490429 -2.00128 -0.250927 0.349885 -1.99463 -0.243258 0.348506 
-1.76022 -0.120332 0.298812 -1.76015 -0.108792 0.298886 -1.43289 0.254063 0.23096 
-1.63725 0.375716 0.276024 -1.63722 0.38097 0.276057 -1.594 0.422034 0.267034 
-1.57967 0.421467 0.263935 -2.66611 -1.10281 0.47824 -2.66606 -1.09316 0.478301 
-2.72076 -1.03012 0.49038 -1.99292 -0.256775 0.341883 -1.97966 -0.248211 0.339136 
-1.95979 -0.238896 0.334992 -1.76745 -0.109238 0.295184 -1.76301 -0.103213 0.294288 
-1.75857 -0.0972257 0.293392 -1.43504 0.255029 0.227448 -1.63587 0.375741 0.270955 
-1.63584 0.380994 0.270989 -1.63142 0.384722 0.270078 -1.60808 0.422926 0.265418 
-1.60036 0.42506 0.263797 -2.69115 -1.11585 0.47457 -2.67676 -1.09934 0.471699 
-2.6906 -1.01817 0.475194 -1.97793 -0.254897 0.332612 -1.96468 -0.246391 0.329919 
-1.76589 -0.103403 0.289618 -1.74715 -0.0967524 0.285768 -1.43388 0.255049 0.223216 
-1.64657 0.379857 0.268431 -1.64654 0.385163 0.268465 -1.64651 0.390468 0.268499 
-2.91967 -1.37578 0.510385 -2.77451 -1.15662 0.482388 -2.72988 -1.03621 0.474181 
-1.96297 -0.25302 0.32345 -1.95633 -0.245466 0.322152 -1.76436 -0.103376 0.284014 
-1.75554 -0.0971718 0.282259 -1.42725 0.253494 0.217852 -1.65388 0.393545 0.265195 
-2.95097 -1.39401 0.506703 -2.75754 -1.14977 0.469793 -2.71296 -1.02998 0.461764 
-1.76283 -0.103349 0.278411 -1.7628 -0.0975413 0.278448 -1.47045 -0.0206934 0.220466 
-1.46164 -0.0163178 0.218735 -1.66018 0.390864 0.261561 -1.66453 0.397767 0.262484 
-2.93051 -1.38453 0.492798 -2.75489 -1.14973 0.460071 -1.75253 -0.102888 0.271088 
-1.74702 -0.0968703 0.27005 -1.46048 -0.0208065 0.214355 -1.46046 -0.0162967 0.214384 
-1.65876 0.390889 0.256373 -1.65873 0.396266 0.256407 -1.6587 0.401643 0.256442 
-1.65539 0.405846 0.255823 -1.66302 0.413979 0.257381 -1.66299 0.419374 0.257416 
-1.66733 0.426391 0.258322 -1.67605 0.435085 0.260099 -1.67602 0.440538 0.260134 
-1.69349 0.452701 0.263656 -2.91119 -1.37563 0.479246 -2.94517 -1.383 0.48573 
-2.73796 -1.14288 0.447654 -1.97744 -0.255694 0.307946 -1.73675 -0.0964473 0.262823 
-1.45601 -0.0208358 0.209372 -1.4538 -0.0163834 0.208979 -1.4153 0.207783 0.203246 
-1.41506 0.251033 0.203522 -1.66166 0.403213 0.252107 -1.65726 0.407044 0.251289 
-2.87435 -1.35731 0.462593 -2.9083 -1.36483 0.468935 -2.74953 -1.13956 0.440693 
-2.74947 -1.12948 0.440757 -2.70511 -1.01995 0.433211 -1.97567 -0.255663 0.301438 
-1.75825 -0.103268 0.2616 -1.75384 -0.097262 0.260814 -1.43512 -0.0167076 0.20135 
-1.4172 0.251999 0.199973 -1.66024 0.403238 0.246901 -1.65584 0.407069 0.246101 
-2.92197 -1.38438 0.461453 -2.71731 -1.12551 0.425619 -2.71725 -1.11556 0.425682 
-1.96733 -0.254709 0.293726 -1.76219 -0.103511 0.257003 -1.75669 -0.0974328 0.256034 
-1.45362 -0.0162983 0.200725 -1.62745 0.155267 0.234066 -1.42942 0.207446 0.197921 
-1.41824 0.25265 0.196194 -2.71469 -1.12546 0.416021 -2.72995 -1.12271 0.418796 
-2.7732 -1.05142 0.42713 -1.97875 -0.27007 0.28951 -1.98526 -0.264246 0.290729 
-1.97867 -0.256521 0.289597 -1.7368 -0.130928 0.246868 -1.73677 -0.125201 0.246905 
-1.7411 -0.119747 0.247728 -1.74653 -0.11432 0.248747 -1.75086 -0.108785 0.24957 
-1.7552 -0.103213 0.250394 -1.75516 -0.0974056 0.250431 -1.45569 -0.0117027 0.197008 
-1.46112 -0.00703756 0.198023 -1.45115 0.212994 0.197851 -1.42254 0.254247 0.192993 
-1.42796 0.260219 0.194016 -2.91627 -1.38427 0.440557 -2.91621 -1.37345 0.440626 
-2.69787 -1.11868 0.403965 -2.72732 -1.12266 0.409134 -2.69775 -1.09891 0.404091 
-2.65617 -1.06986 0.396965 -2.68305 -1.00387 0.402196 -1.99769 -0.273137 0.28661 
-1.74501 -0.114293 0.24318 -1.73517 -0.107993 0.241489 -1.73513 -0.102266 0.241525 
-1.74491 -0.0969831 0.243291 -1.45995 -0.0115498 0.19362 -1.46319 -0.00692305 0.194227 
-1.62033 0.154623 0.223155 -1.41595 0.252691 0.187802 -1.41919 0.257999 0.188414 
-2.91342 -1.38422 0.430109 -2.89698 -1.36462 0.427417 -2.69527 -1.11863 0.394426 
-2.69521 -1.10875 0.394489 -2.68096 -1.09224 0.392153 -2.68091 -1.08242 0.392215 
-2.78311 -1.05792 0.410028 -2.72412 -1.02247 0.400111 -2.0155 -0.276041 0.28335 
-1.99585 -0.266241 0.280032 -1.72927 -0.102022 0.23525 -1.74775 -0.0971538 0.238474 
-1.46202 -0.0114494 0.18981 -1.46526 -0.0068084 0.190403 -1.61895 0.154648 0.218105 
-1.53804 0.215087 0.204591 -1.54128 0.220718 0.205191 -1.40937 0.251134 0.182658 
-1.42348 0.25962 0.185153 -2.96293 -1.41246 0.428276 -2.70673 -1.10543 0.387354 
-2.6925 -1.08893 0.385077 -2.70662 -1.08553 0.387481 -2.73571 -1.03856 0.392728 
-2.73566 -1.02849 0.392793 -2.0356 -0.307446 0.280109 -2.03556 -0.300402 0.280154 
-2.02133 -0.284132 0.277876 -1.72777 -0.101996 0.229742 -1.74188 -0.0969292 0.232157 
-1.47931 -0.0109791 0.18854 -1.46406 -0.00678709 0.186002 -1.53999 0.220741 0.200465 
-1.3237 0.393199 0.16528 -3.03187 -1.43994 0.429227 -2.73341 -1.09897 0.382621 
-2.73301 -1.02844 0.383071 -2.02614 -0.306139 0.27207 -2.03371 -0.300369 0.273358 
-2.01953 -0.291082 0.271094 -1.72627 -0.101969 0.224235 -1.74471 -0.0970997 0.227303 
-1.45635 -0.00695284 0.180527 -1.32265 0.393218 0.161459 -2.73076 -1.09892 0.3729 
-2.77495 -1.04751 0.380367 -2.03193 -0.314424 0.266472 -2.01778 -0.305014 0.264268 
-2.01014 -0.296791 0.263102 -1.99024 -0.231824 0.260383 -1.74319 -0.0970726 0.221718 
-1.45296 -0.00247011 0.175833 -1.31945 0.392208 0.157284 -2.69871 -1.07545 0.35875 
-2.72799 -1.07872 0.363307 -2.77219 -1.03719 0.370523 -2.03012 -0.321435 0.259631 
-2.01598 -0.311964 0.257487 -1.98882 -0.300433 0.253322 -1.73194 -0.102348 0.214573 
-1.46372 -0.00662948 0.173307 -1.45719 -0.00226919 0.172317 -1.3897 0.24254 0.163537 
-1.31406 0.3941 0.152806 -1.30756 0.394889 0.151793 -2.08901 1.14893 0.279525 
-2.07386 1.14548 0.277129 -2.08137 1.15818 0.278397 -2.11155 1.18732 0.283331 
-2.96855 -1.39942 0.388328 -2.6961 -1.0754 0.349152 -2.73945 -1.08504 0.355689 
-2.79987 -1.05006 0.365151 -2.0066 -0.317574 0.249559 -1.98706 -0.307265 0.246655 
-1.97943 -0.299127 0.245553 -1.73584 -0.102591 0.209852 -1.7553 -0.0977086 0.212853 
-1.46792 -0.00645189 0.169717 -1.45599 -0.00224794 0.167929 -1.31519 0.395157 0.149349 
-1.30869 0.395955 0.148364 -2.03433 1.09724 0.264032 -2.07203 1.13098 0.270021 
-2.08708 1.14896 0.272445 -2.09459 1.16169 0.273681 -2.07945 1.15822 0.27135 
-2.03413 1.13277 0.264258 -2.02762 1.13517 0.263284 -2.69348 -1.07535 0.339554 
-2.72269 -1.07863 0.343864 -2.76679 -1.03709 0.350706 -1.97771 -0.312757 0.238875 
-1.73865 -0.10278 0.204926 -1.75376 -0.0976812 0.207204 -1.45804 -0.00211868 0.164024 
-1.31415 0.395175 0.145546 -1.30982 0.397021 0.144916 -2.09269 1.15436 0.266523 
-2.08495 1.18569 0.2656 -2.0924 1.20595 0.266852 -2.10743 1.22457 0.269216 
-2.63559 -1.04038 0.322231 -2.63526 -0.982141 0.322603 -2.017 -0.319997 0.238159 
-1.73281 -0.102537 0.198719 -1.74682 -0.0974077 0.200777 -2.07549 1.1802 0.257394 
-2.08298 1.19306 0.258567 -2.09799 1.21158 0.260867 -2.70339 -1.08218 0.322431 
-2.68819 -1.06531 0.320421 -2.68786 -1.00562 0.320802 -1.73561 -0.102726 0.193756 
-1.75068 -0.0976265 0.195906 -1.46745 0.00754836 0.156946 -1.47677 0.0778068 0.158756 
-2.70076 -1.08214 0.312769 -2.68558 -1.06527 0.310823 -2.68524 -1.00558 0.311204 
-2.7003 -1.00202 0.313281 -1.72977 -0.102483 0.187585 -1.74914 -0.0975991 0.190257 
-1.46624 0.00756991 0.152495 -1.48092 0.0784115 0.155 -2.69812 -1.08209 0.303107 
-2.68296 -1.06522 0.301225 -2.6686 -0.999534 0.299797 -2.68257 -0.995583 0.30167 
-1.72287 -0.102187 0.181309 -1.74222 -0.0973259 0.183898 -1.4618 0.00745477 0.147616 
-1.45211 0.198688 0.147699 -1.42844 0.197766 0.144566 -1.33463 0.419343 0.133758 
-2.66639 -1.06869 0.289816 -2.66633 -1.05881 0.28988 -2.63906 -0.987956 0.286893 
-2.65193 -0.983667 0.288571 -1.72136 -0.10216 0.175765 -1.73531 -0.0970529 0.177586 
-1.46704 0.00774979 0.144005 -1.45091 0.198709 0.143298 -1.43048 0.198534 0.140683 
-1.34321 0.424164 0.131119 -2.62282 -1.04015 0.275406 -2.0824 -0.413745 0.212914 
-2.0372 -0.396385 0.20744 -2.00813 -0.382932 0.203935 -2.07475 -0.390128 0.212134 
-1.72522 -0.102403 0.170884 -1.73378 -0.0970258 0.171983 -1.46582 0.00777141 0.139539 
[...]
POINT_DATA 7870
SCALARS z_coord float
LOOKUP_TABLE default
0.605765 0.609475 0.607353 0.61128 0.571833 0.586322 0.586386 0.427666 0.256523 
0.272821 0.272294 0.573133 0.573197 0.549742 0.424451 0.252954 0.268454 0.563471 
0.553049 0.417403 0.320105 0.248324 0.292441 0.268681 0.557157 0.553873 0.404848 
0.408535 0.310583 0.244763 0.28761 0.264735 0.264237 0.544147 0.5475 0.394274 
0.396108 0.403308 0.399777 0.40519 0.408815 0.287986 0.288018 0.261089 0.540944 
0.544487 0.38563 0.28408 0.284113 0.259678 0.259707 0.217978 0.515195 0.509159 
0.372371 0.230735 0.281635 0.505715 0.502906 0.353548 0.304379 0.304416 0.304452 
0.279344 0.670858 0.493419 0.490429 0.349885 0.348506 0.298812 0.298886 0.23096 
0.276024 0.276057 0.267034 0.263935 0.47824 0.478301 0.49038 0.341883 0.339136 
0.334992 0.295184 0.294288 0.293392 0.227448 0.270955 0.270989 0.270078 0.265418 
0.263797 0.47457 0.471699 0.475194 0.332612 0.329919 0.289618 0.285768 0.223216 
0.268431 0.268465 0.268499 0.510385 0.482388 0.474181 0.32345 0.322152 0.284014 
0.282259 0.217852 0.265195 0.506703 0.469793 0.461764 0.278411 0.278448 0.220466 
0.218735 0.261561 0.262484 0.492798 0.460071 0.271088 0.27005 0.214355 0.214384 
0.256373 0.256407 0.256442 0.255823 0.257381 0.257416 0.258322 0.260099 0.260134 
0.263656 0.479246 0.48573 0.447654 0.307946 0.262823 0.209372 0.208979 0.203246 
0.203522 0.252107 0.251289 0.462593 0.468935 0.440693 0.440757 0.433211 0.301438 
0.2616 0.260814 0.20135 0.199973 0.246901 0.246101 0.461453 0.425619 0.425682 
0.293726 0.257003 0.256034 0.200725 0.234066 0.197921 0.196194 0.416021 0.418796 
0.42713 0.28951 0.290729 0.289597 0.246868 0.246905 0.247728 0.248747 0.24957 
0.250394 0.250431 0.197008 0.198023 0.197851 0.192993 0.194016 0.440557 0.440626 
0.403965 0.409134 0.404091 0.396965 0.402196 0.28661 0.24318 0.241489 0.241525 
0.243291 0.19362 0.194227 0.223155 0.187802 0.188414 0.430109 0.427417 0.394426 
0.394489 0.392153 0.392215 0.410028 0.400111 0.28335 0.280032 0.23525 0.238474 
0.18981 0.190403 0.218105 0.204591 0.205191 0.182658 0.185153 0.428276 0.387354 
0.385077 0.387481 0.392728 0.392793 0.280109 0.280154 0.277876 0.229742 0.232157 
0.18854 0.186002 0.200465 0.16528 0.429227 0.382621 0.383071 0.27207 0.273358 
0.271094 0.224235 0.227303 0.180527 0.161459 0.3729 0.380367 0.266472 0.264268 
0.263102 0.260383 0.221718 0.175833 0.157284 0.35875 0.363307 0.370523 0.259631 
0.257487 0.253322 0.214573 0.173307 0.172317 0.163537 0.152806 0.151793 0.279525 
0.277129 0.278397 0.283331 0.388328 0.349152 0.355689 0.365151 0.249559 0.246655 
0.245553 0.209852 0.212853 0.169717 0.167929 0.149349 0.148364 0.264032 0.270021 
0.272445 0.273681 0.27135 0.264258 0.263284 0.339554 0.343864 0.350706 0.238875 
0.204926 0.207204 0.164024 0.145546 0.144916 0.266523 0.2656 0.266852 0.269216 
0.322231 0.322603 0.238159 0.198719 0.200777 0.257394 0.258567 0.260867 0.322431 
0.320421 0.320802 0.193756 0.195906 0.156946 0.158756 0.312769 0.310823 0.311204 
0.313281 0.187585 0.190257 0.152495 0.155 0.303107 0.301225 0.299797 0.30167 
0.181309 0.183898 0.147616 0.147699 0.144566 0.133758 0.289816 0.28988 0.286893 
0.288571 0.175765 0.177586 0.144005 0.143298 0.140683 0.131119 0.275406 0.212914 
0.20744 0.203935 0.212134 0.170884 0.171983 0.139539 0.138493 0.136368 0.13197 
0.264538 0.20476 0.207468 0.197879 0.198812 0.200506 0.200552 0.165318 0.166379 
0.134717 0.133715 0.131404 0.127439 0.128785 0.261327 0.264651 0.240238 0.194291 
0.194337 0.192571 0.159751 0.161393 0.131726 0.130638 0.128087 0.127739 0.125916 
0.245979 0.251851 0.188972 0.189018 0.188241 0.17606 0.176103 0.153589 0.155172 
0.128176 0.126532 0.130427 0.123034 0.122821 0.122985 0.239459 0.245327 0.168117 
0.167479 0.166954 0.165634 0.166357 0.167648 0.165759 0.148617 0.150141 0.124323 
0.122973 0.123331 0.125438 0.118733 0.118529 0.118989 0.230035 0.157894 0.156739 
0.154495 0.152249 0.153032 0.14305 0.144514 0.119782 0.121173 0.114767 0.114237 
0.115656 0.236136 0.231719 0.220611 0.223235 0.21232 0.148838 0.147732 0.145687 
0.141556 0.138861 0.13848 0.138936 0.137483 0.138888 0.11089 0.110919 0.111585 
0.11342 0.114087 0.116242 0.112108 0.111281 0.111923 0.177041 0.22168 0.224569 
0.212361 0.148667 0.14642 0.144868 0.131069 0.131906 0.132721 0.134168 0.108066 
0.106821 0.107155 0.11259 0.106593 0.10611 0.201753 0.210348 0.142269 0.139651 
0.136082 0.125026 0.125539 0.128463 0.128981 0.103324 0.104082 0.10206 0.101795 
0.10335 0.103379 0.195802 0.201745 0.119118 0.119518 0.124077 0.100448 0.0979186 
0.0974804 0.0990492 0.156446 0.156492 0.18825 0.18614 0.182913 0.182976 0.113593 
0.113974 0.11878 0.0971414 0.0966446 0.0935812 0.0934323 0.0945668 0.178469 0.177506 
0.173489 0.175542 0.108067 0.108104 0.113355 0.0928206 0.0926011 0.0894964 0.0888513 
0.0904475 0.143652 0.143792 0.28355 0.274728 0.164931 0.173201 0.1888 0.112718 
0.111533 0.110347 0.102233 0.102578 0.107583 0.0884724 0.0882667 0.0847472 0.0845368 
0.0863916 0.242782 0.235938 0.229497 0.229595 0.227647 0.227743 0.229888 0.234356 
0.158127 0.159102 0.159285 0.166331 0.104683 0.0967254 0.0970521 0.10181 0.0839443 
0.0836522 0.0834601 0.0775907 0.0801937 0.0799969 0.22711 0.222893 0.218798 0.214828 
0.213016 0.213113 0.217159 0.230065 0.149256 0.149321 0.153255 0.167017 0.0966116 
0.0963131 0.0960142 0.091835 0.0915994 0.096419 0.097488 0.0789467 0.0786508 0.0788896 
0.0737688 0.0775417 0.145911 0.145045 0.200353 0.210152 0.139475 0.13954 0.140704 
0.0894819 0.0892054 0.0862909 0.0863276 0.090303 0.091624 0.0737043 0.0739292 0.0678013 
0.0739625 0.135455 0.196594 0.130482 0.129759 0.128651 0.0830798 0.0839942 0.0807469 
0.0842924 0.0857601 0.0705952 0.124787 0.180922 0.120637 0.119306 0.11972 0.121143 
0.0775763 0.0784223 0.0745695 0.0785381 0.0796211 0.0646156 0.0650455 0.0663471 0.114049 
0.115601 0.153722 0.158061 0.162678 0.163704 0.168629 0.168735 0.107149 0.107212 
0.110742 0.0767742 0.0720271 0.0720656 0.0690849 0.07378 0.0599326 0.0607375 0.061187 
0.0617467 0.106041 0.103452 0.145577 0.143001 0.148541 0.149578 0.160487 0.160598 
0.09767 0.0982867 0.0992962 0.0660225 0.0664323 0.0662473 0.0636003 0.0668004 0.0674803 
0.0554169 0.0517758 0.0564021 0.0572233 0.0569549 0.095072 0.0933568 0.129194 0.145099 
0.140845 0.0902058 0.0887481 0.0589538 0.0589919 0.0607917 0.0608304 0.0579531 0.0614785 
0.0522557 0.0526732 0.0524321 0.0504451 0.050335 0.0821878 0.115922 0.113887 0.113988 
0.0813876 0.0535131 0.0535514 0.0545724 0.0551443 0.0515848 0.0555591 0.0437766 0.0472706 
0.0478426 0.0481505 0.0477344 0.0460608 0.0710939 0.0977224 0.0969627 0.096201 0.09716 
0.0727558 0.0700077 0.0475664 0.0474833 0.049025 0.0464298 0.0498049 0.0420676 0.0396586 
0.0419782 0.0420507 0.0423526 0.0436552 0.0433252 0.0419885 0.0597932 0.0821478 0.0829614 
0.081629 0.0621038 0.0625105 0.0615277 0.0625867 0.0415625 0.042952 0.0411318 0.0411674 
0.0438748 0.0441609 0.0374394 0.0355988 0.0374889 0.03784 0.0393751 0.038903 0.0683699 
0.0679016 0.0680012 0.0524717 0.0525377 0.0524774 0.0360212 0.0368935 0.0370407 0.0358328 
0.0358686 0.0381434 0.0386184 0.0319795 0.0317626 0.0330269 0.0330558 0.0330351 0.0331426 
0.0332463 0.0334249 0.053365 0.0521922 0.0514788 0.0523875 0.0546754 0.0566789 0.0553369 
0.0549833 0.0546278 0.0534057 0.0535044 0.0558552 0.0541366 0.0550747 0.0547343 0.0552759 
0.056788 0.0568917 0.0551327 0.0552323 0.0660855 0.066205 0.0656614 0.0657795 0.0652464 
0.0429397 0.0425517 0.0301825 0.0310215 0.0309741 0.0310981 0.0312224 0.0305863 0.0304616 
0.0325041 0.0328923 0.027787 0.0276756 0.0286529 0.0286818 0.0287716 0.0288296 0.0288586 
0.0290506 0.0349266 0.0481332 0.0465007 0.0474737 0.0475906 0.0328343 0.0330344 0.0243083 
0.0252261 0.0252644 0.0253027 0.025341 0.025072 0.0250547 0.0269434 0.0272592 0.0235915 
0.0235429 0.0244018 0.0243838 0.0243657 0.0243632 0.0261304 0.0199548 0.0256943 0.0266697 
0.0277585 0.0276666 0.0279868 0.0227491 0.0225506 0.0225284 0.0225053 0.0229647 0.018429 
0.018533 0.0193157 0.019354 0.0193923 0.0195818 0.0198643 0.0199851 0.0196902 0.0197612 
0.0212178 0.0214424 0.0193514 0.0195044 0.0195653 0.0194223 0.0193645 0.0217663 0.0217954 
0.0133373 0.0129453 0.0130125 0.0133138 0.0133371 0.013476 0.0135147 0.0135533 0.0135919 
0.0139367 0.0142052 0.0142782 0.0153773 0.0155107 0.0148358 0.0152022 0.0152005 0.0151121 
0.0151094 0.0174665 0.0173787 0.0173824 0.00416553 0.0071241 0.00715441 0.00720167 0.00742695 
0.00748042 0.00762826 0.00767356 0.00771854 0.00775084 0.00798792 0.00805489 0.00886309 0.00890085 
0.00941325 0.010413 0.0107391 0.0107654 0.0107901 0.0108145 0.0129733 0.0129301 -0.0215381 
-0.0153946 0.00126016 0.00123629 0.00130052 0.00137058 0.00140998 0.00164798 0.00168678 0.00172556 
0.00217235 0.00221041 0.00222597 0.00222975 0.00335369 0.00341478 0.00339049 0.00343034 0.00593084 
0.00619778 0.00626269 0.00628555 0.00854281 0.00857663 0.00861778 -0.0263236 -0.00476679 -0.00472754 
-0.00473129 -0.00458476 -0.00443887 -0.00411039 -0.00407192 -0.0039809 -0.0034416 -0.00340384 -0.0033254 
-0.00343206 -0.00339389 -0.00223002 -0.00277865 -0.00268402 0.00152603 0.00175438 0.00174429 0.00177355 
0.00181838 0.00184758 0.00187679 0.00399047 -0.0383202 -0.0105839 -0.010545 -0.010506 -0.00790095 
-0.00348684 -0.0493353 -0.0173122 -0.0144096 -0.0134861 -0.0104227 -0.0102328 -0.0100436 -0.00992968 
-0.0562786 -0.0562081 -0.0502993 -0.0498157 -0.0198988 -0.019862 -0.0200166 -0.0205958 -0.0210133 
-0.0209732 -0.0680246 -0.0679531 -0.0628014 -0.0257683 -0.0255024 -0.0253228 -0.0251719 -0.0253697 
-0.0252942 -0.0263388 -0.0776138 -0.0781388 -0.0730241 -0.0712723 -0.0313717 -0.0309034 -0.0307342 
-0.0306977 -0.0314017 -0.0310405 -0.0311642 -0.0324315 -0.0331928 -0.0903305 -0.0826372 -0.0825671 
-0.0844382 -0.0811602 -0.0377681 -0.0373903 -0.0369752 -0.0364475 -0.0373037 -0.036749 -0.0368956 
-0.0370418 -0.037151 -0.0372967 -0.0374421 -0.0374036 -0.037732 -0.03819 -0.102846 -0.0916775 
-0.090946 -0.0434584 -0.0428275 -0.0424198 -0.0428472 -0.042809 -0.0429771 -0.0429388 -0.0433245 
-0.116524 -0.11197 -0.102836 -0.0489138 -0.0484538 -0.0475303 -0.0489604 -0.125819 -0.119255 
-0.111705 -0.112436 -0.0545812 -0.0540801 -0.0533736 -0.0528737 -0.0526315 -0.052595 -0.0544949 
-0.0544569 -0.0537099 -0.0540487 -0.0547628 -0.136948 -0.13081 -0.118613 -0.122016 -0.0600242 
-0.0592016 -0.0586602 -0.0583994 -0.0581389 -0.0578227 -0.0594754 -0.0598212 -0.0608776 -0.129196 
-0.148004 -0.128651 -0.0653699 -0.0647868 -0.067038 -0.136972 -0.161624 -0.0713598 -0.0726055 
-0.172918 -0.0766597 -0.066373 -0.0788116 -0.0466667 -0.0466404 -0.0464214 -0.0465877 -0.0468181 
-0.0469199 -0.0468934 -0.0470591 -0.0471607 -0.047134 -0.0472086 -0.0471819 -0.0471552 -0.0471284 
-0.0471017 -0.0469474 -0.0469207 -0.0470215 -0.0468674 -0.0468407 -0.0468141 -0.0467874 -0.180133 
-0.182801 -0.0829183 -0.0832527 -0.0850634 -0.0509231 -0.050759 -0.050595 -0.0505686 -0.0506798 
-0.0507908 -0.0507644 -0.0508752 -0.0509216 -0.050895 -0.0508684 -0.0508418 -0.0509519 -0.0509252 
-0.050762 -0.0507354 -0.0507088 -0.0504776 -0.192447 -0.185332 -0.0892587 -0.0704277 -0.091361 
-0.0682023 -0.0544607 -0.0544345 -0.0539676 -0.0539415 -0.0528591 -0.208298 -0.198957 -0.0864891 
-0.084215 -0.0835177 -0.0834838 -0.0784473 -0.0762629 -0.0985257 -0.0727183 -0.0393144 -0.0395957 
-0.0398037 -0.0396325 -0.0395372 -0.039442 -0.216362 -0.208377 -0.0963269 -0.0955015 -0.0954654 
-0.0957796 -0.094605 -0.0894046 -0.104093 -0.0774579 -0.0423157 -0.0430263 -0.0431674 -0.0431477 
-0.0428869 -0.0428673 -0.227573 -0.22074 -0.142616 -0.141825 -0.100174 -0.0979244 -0.094997 
-0.0934886 -0.0917969 -0.110528 -0.081372 -0.0452408 -0.0454771 -0.0456281 -0.0458709 -0.0458513 
-0.231704 -0.225059 -0.149428 -0.150157 -0.150108 -0.148502 -0.128977 -0.122193 -0.116529 
-0.0481659 -0.0482364 -0.0483965 -0.0489268 -0.0489071 -0.240904 -0.240832 -0.159328 -0.159278 
-0.158413 -0.157549 -0.153481 -0.151195 -0.148198 -0.104264 -0.10271 -0.123032 -0.0513548 
-0.0515241 -0.0515989 -0.0518623 -0.0518427 -0.051823 -0.259222 -0.259149 -0.399588 -0.29632 
-0.266154 -0.258181 -0.254237 -0.166942 -0.166041 -0.165991 -0.130736 -0.264234 -0.271686 
-0.269481 -0.171939 -0.173668 -0.171841 -0.137381 -0.287855 -0.279304 -0.179344 -0.17756 
-0.143501 -0.299231 -0.294693 -0.181363 -0.184082 -0.184033 -0.150967 -0.150214 -0.305979 
-0.303592 -0.157138 -0.156357 -0.317116 -0.172722 -0.176563 -0.163947 -0.163267 -0.0838889 
-0.32096 -0.316346 -0.178386 -0.169478 -0.168643 -0.334488 -0.327165 -0.180985 -0.181637 
-0.183953 -0.1741 -0.090772 -0.350676 -0.340331 -0.345412 -0.180991 -0.179512 -0.370211 
-0.35909 -0.356445 -0.356372 -0.36498 -0.184002 -0.384636 -0.378637 -0.372951 -0.370752 
-0.188502 -0.190722 -0.38705 -0.378475 -0.345796 -0.343509 -0.350574 -0.350505 -0.355347 
-0.368107 -0.196056 -0.196792 -0.3953 -0.366286 -0.363606 -0.358481 -0.358413 -0.360953 
-0.373692 -0.378999 -0.202102 -0.202861 -0.419056 -0.448441 -0.467442 -0.471407 -0.471321 
-0.475285 -0.487931 -0.492227 -0.515218 -0.520011 -0.208149 -0.209917 -0.214196 -0.216014 
-0.22111 -0.222111 -0.228248 -0.228208 -0.234346 -0.235218 -0.225879 -0.241379 -0.242274 
-0.229092 -0.430353 -0.247499 -0.248417 -0.235946 -0.204305 -0.255779 -0.25672 -0.259738 
-0.260703 -0.265858 -0.266845 -0.256784 -0.271978 -0.272988 -0.279171 -0.280419 -0.284218 
-0.286589 -0.273705 -0.291376 -0.278579 -0.231676 -0.298888 -0.281151 -0.237891 -0.236447 
-0.303661 -0.248451 -0.243379 -0.309804 -0.254094 -0.250637 -0.317399 -0.252193 -0.323569 
-0.251443 -0.252934 -0.252903 -0.329739 -0.258466 -0.258435 -0.258403 -0.338723 -0.26577 
-0.266527 -0.263868 -0.344943 -0.270556 -0.274801 -0.275838 -0.351163 -0.334877 -0.284553 
-0.352803 -0.343546 -0.287558 -0.358946 -0.348236 -0.368153 -0.35426 -0.369897 -0.372971 
-0.37293 -0.358882 -0.377456 -0.38058 -0.380539 -0.373799 -0.372333 -0.366308 -0.388486 
-0.38523 -0.383436 -0.38172 -0.379942 -0.375267 -0.312967 -0.396232 -0.387891 -0.384614 
-0.378395 -0.371002 -0.489335 -0.31789 -0.316946 -0.394142 -0.394102 -0.390774 -0.384459 
-0.321887 -0.321855 -0.408512 -0.40183 -0.398451 -0.395377 -0.388966 -0.326763 -0.418171 
-0.418129 -0.408105 -0.409912 -0.408023 -0.406442 -0.331672 -0.290694 -0.295095 -0.303997 
-0.299496 -0.311405 -0.308421 -0.303898 -0.31587 -0.313844 -0.305661 -0.32236 -0.318282 
-0.325827 -0.330306 -0.264035 -0.266977 -0.27345 -0.271311 -0.279259 -0.276377 -0.390751 
-0.350382 -0.351082 -0.283675 -0.280757 -0.396841 -0.354859 -0.288843 -0.287353 -0.357151 
-0.358243 -0.361601 -0.363781 -0.365907 -0.371508 -0.379547 -0.379517 -0.3852 -0.504322 
-0.325611 -0.449531 -0.510068 -0.510031 -0.328544 -0.465534 -0.46719 -0.512031 -0.514095 
-0.514058 -0.333983 -0.332291 -0.47238 -0.468929 -0.515998 -0.515961 -0.515923 -0.337749 
-0.336039 -0.48401 -0.475775 -0.517351 -0.519462 -0.519425 -0.341515 -0.339787 -0.514019 
-0.513983 -0.513946 -0.519555 -0.521255 -0.519371 -0.52107 -0.521033 -0.522732 -0.522695 
-0.479303 -0.484016 -0.519527 -0.517296 -0.519454 -0.525122 -0.52684 -0.522708 -0.522671 
-0.522634 -0.522598 -0.480953 -0.485717 -0.489171 -0.506545 -0.504765 -0.502986 -0.499682 
-0.487624 -0.478148 -0.479891 -0.494266 -0.497781 -0.504845 -0.510133 -0.515421 -0.519377 
-0.519341 -0.521079 -0.481309 -0.482597 -0.484327 -0.497782 -0.499509 -0.49595 -0.48575 
-0.354596 -0.508505 -0.504871 -0.491106 -0.488101 -0.488067 -0.488034 -0.491139 -0.492899 
-0.496452 -0.504833 -0.510177 -0.513728 -0.517278 -0.520828 -0.522585 -0.522549 -0.522513 
-0.478378 -0.481463 -0.48143 -0.490989 -0.494516 -0.485992 -0.517402 -0.513731 -0.502733 
-0.507692 -0.511289 -0.519979 -0.51813 -0.51628 -0.514431 -0.512583 -0.512548 -0.5107 
-0.510665 -0.508817 -0.506969 -0.505122 -0.503728 -0.501881 -0.498221 -0.5 -0.480233 
-0.4847 -0.515389 -0.448937 -0.446174 -0.446144 -0.444747 -0.444717 -0.443321 -0.443291 
-0.443261 -0.483355 -0.513658 -0.452155 -0.450744 -0.450714 -0.449304 -0.449274 -0.449244 
-0.449213 -0.447804 -0.481882 -0.470436 -0.470405 -0.470373 -0.468947 -0.46752 -0.468791 
-0.46876 -0.467334 -0.468698 -0.465412 -0.462561 -0.458224 -0.4568 -0.456769 -0.480745 
-0.470908 -0.468098 -0.475148 -0.475117 -0.475086 -0.475054 -0.47349 -0.473459 -0.473428 
-0.473396 -0.473365 -0.462822 -0.461384 -0.462762 -0.483704 -0.477051 -0.475616 -0.462004 
-0.374526 -0.373567 -0.368873 -0.484193 -0.482738 -0.481284 -0.479829 -0.48255 -0.482519 
-0.481065 -0.48568 -0.48092 -0.480387 -0.478939 -0.477492 -0.377339 -0.487509 -0.487478 
-0.491897 -0.48566 -0.483634 -0.482173 -0.483572 -0.48354 -0.483509 -0.472686 -0.381087 
-0.492249 -0.493669 -0.490431 -0.4904 -0.489804 -0.488329 -0.489741 -0.48971 -0.489679 
-0.477312 -0.385796 -0.497051 -0.500036 -0.494449 -0.494418 -0.494387 -0.495813 -0.500638 
-0.489829 -0.486399 -0.486368 -0.484881 -0.483394 -0.520223 -0.52019 -0.511205 -0.50066 
-0.500629 -0.500597 -0.499095 -0.503966 -0.491096 -0.489595 -0.489564 -0.488063 -0.486563 
-0.502022 -0.511157 -0.519551 -0.519519 -0.508783 -0.511721 -0.50872 -0.503741 -0.500741 
-0.509733 -0.511207 -0.511176 -0.511145 -0.511113 -0.524686 -0.522652 -0.516114 -0.514581 
-0.516051 -0.51752 -0.514486 -0.514455 -0.520926 -0.512354 -0.514427 -0.514396 -0.514365 
-0.512814 -0.517915 -0.517883 -0.517852 -0.51782 -0.519303 -0.519272 -0.51924 -0.519208 
-0.512385 -0.510822 -0.509258 -0.506162 -0.504599 -0.503036 -0.501473 -0.501443 -0.502945 
-0.504386 -0.504295 -0.505796 -0.507297 -0.522781 -0.51684 -0.513756 -0.507347 -0.523984 
-0.52241 -0.51024 -0.511818 -0.511788 -0.506764 -0.505181 -0.511713 -0.505517 -0.502354 
-0.516269 -0.516239 -0.508443 -0.517636 -0.522391 -0.517576 -0.514887 -0.487965 -0.48528 
-0.482596 -0.479856 -0.474489 -0.524848 -0.520526 -0.519424 -0.516177 -0.481525 -0.47989 
-0.442687 -0.526077 -0.522769 -0.515818 -0.517411 -0.511433 -0.511404 -0.481388 -0.48028 
-0.452512 -0.446545 -0.521161 -0.515073 -0.509835 -0.505444 -0.482813 -0.481696 -0.457509 
-0.453126 -0.447109 -0.443815 -0.52223 -0.50536 -0.484742 -0.483066 -0.462525 -0.457006 
-0.452037 -0.448717 -0.523804 -0.520975 -0.505202 -0.505174 -0.48608 -0.484391 -0.455876 
-0.453636 -0.451396 -0.449156 -0.528155 -0.525303 -0.487373 -0.486228 -0.456315 -0.454057 
-0.530799 -0.527924 -0.501231 -0.501176 -0.488619 -0.487466 -0.460127 -0.45785 -0.533989 
-0.530518 -0.494363 -0.491497 -0.488631 -0.485198 -0.465073 -0.462778 -0.460484 -0.531956 
-0.529036 -0.4967 -0.495528 -0.491495 -0.489179 -0.468894 -0.466581 -0.463124 -0.531571 
-0.530377 -0.491456 -0.490276 -0.464593 -0.450683 -0.532875 -0.531672 -0.493097 -0.489 
-0.487811 -0.486623 -0.457841 -0.454331 -0.45024 -0.44673 -0.534106 -0.491745 -0.490547 
-0.488177 -0.460345 -0.457978 -0.453855 -0.450318 -0.538329 -0.537108 -0.51176 -0.506416 
-0.490312 -0.45747 -0.453905 -0.539491 -0.507429 -0.494178 -0.48577 -0.458706 -0.455709 
-0.520888 -0.520862 -0.504797 -0.489598 -0.485975 -0.487149 -0.484726 -0.462303 -0.459283 
-0.458061 -0.526075 -0.505087 -0.50748 -0.507454 -0.4861 -0.484867 -0.461626 -0.456146 
-0.530075 -0.505932 -0.507733 -0.508925 -0.491066 -0.488606 -0.465191 -0.459669 -0.504839 
-0.504813 -0.503561 -0.492369 -0.488665 -0.483734 -0.482483 -0.463193 -0.460719 -0.460083 
-0.50496 -0.502462 -0.499965 -0.496108 -0.494847 -0.487409 -0.484913 -0.464224 -0.462349 
-0.518619 -0.519851 -0.503731 -0.491083 -0.48857 -0.488545 -0.488521 -0.46773 -0.467085 
-0.519977 -0.517419 -0.504988 -0.506218 -0.503684 -0.492202 -0.48967 -0.466177 -0.462395 
-0.514845 -0.503682 -0.503657 -0.502369 -0.497121 -0.494571 -0.469646 -0.465206 -0.514748 
-0.514724 -0.504799 -0.504603 -0.49949 -0.49565 -0.493718 -0.471844 -0.467372 -0.462264 
-0.459064 -0.517233 -0.514621 -0.509773 -0.509749 -0.511006 -0.498639 -0.496053 -0.493467 
-0.464375 -0.461152 -0.45857 -0.457267 -0.519651 -0.518323 -0.513475 -0.514717 -0.504198 
-0.500949 -0.497055 -0.467757 -0.463867 -0.461911 -0.45931 -0.52205 -0.519401 -0.511953 
-0.508029 -0.499343 -0.462655 -0.461984 -0.520443 -0.508395 -0.465978 -0.465302 -0.524109 