# vtk DataFile Version 4.2
vtk output
ASCII
DATASET POLYDATA
POINTS 9160 float
-4.24322 -2.88773 0.91733 -4.28218 -2.90042 0.926703 -4.27796 -2.91675 0.910766 
-4.23886 -2.87141 0.901761 -4.31686 -2.5329 0.923038 -4.31677 -2.51632 0.923144 
-4.27115 -2.47363 0.897759 -4.27105 -2.45722 0.897863 -2.46573 1.74454 0.505295 
-4.26683 -2.47355 0.881927 -4.30786 -2.48299 0.891353 -2.4513 1.73403 0.49392 
-2.46337 1.75338 0.496864 -4.26252 -2.47347 0.866094 -4.3035 -2.48291 0.875351 
-2.44905 1.72533 0.485428 -2.43799 1.72448 0.482904 -2.44895 1.74282 0.485539 
-4.25802 -2.44058 0.850471 -2.42486 1.68898 0.471813 -2.42481 1.69763 0.471868 
-2.41486 1.69769 0.469644 -2.40382 1.6967 0.467165 -4.21493 -2.41621 0.8263 
-2.4446 1.69918 0.468386 -2.42258 1.68902 0.463468 -2.41265 1.68912 0.461284 
-2.42035 1.68041 0.455067 -2.39946 1.6711 0.450483 -2.38844 1.67016 0.448096 
-4.24507 -2.44035 0.802975 -2.4401 1.68177 0.4514 -2.40827 1.66338 0.44451 
-2.39726 1.66258 0.44217 -4.2816 -2.46594 0.79545 -2.40605 1.65481 0.436151 
-2.39506 1.65406 0.433856 -2.39501 1.66262 0.433911 -2.38401 1.66173 0.431616 
-4.19785 -2.41591 0.763611 -2.4937 1.68621 0.446446 -2.49365 1.69521 0.446504 
-2.46954 1.68404 0.441496 -2.44762 1.6745 0.436947 -4.27287 -2.46579 0.763448 
-2.5638 1.68098 0.452242 -2.56375 1.69029 0.452301 -2.56369 1.6996 0.452361 
-2.56364 1.70891 0.45242 -4.18921 -2.39951 0.73237 -2.57445 1.69152 0.445911 
-2.5864 1.71055 0.4484 -2.57434 1.71025 0.44603 -2.56119 1.70895 0.443439 
-2.54914 1.70843 0.441068 -2.66502 1.69749 0.454821 -2.61046 1.66497 0.444079 
-2.59732 1.6643 0.441547 -2.58419 1.66351 0.439014 -2.55906 1.65314 0.434102 
-2.55901 1.66245 0.434161 -2.54696 1.6622 0.431842 -4.42673 -2.58831 0.74599 
-4.38382 -2.54395 0.738235 -4.55703 -2.67414 0.753536 -4.51088 -2.62711 0.745371 
-4.37482 -2.54379 0.705199 -4.41298 -2.57076 0.696012 -4.36581 -2.54363 0.672163 
-2.20136 1.52028 0.328618 -2.18398 1.51288 0.325566 -2.17527 1.51296 0.324064 
-2.15031 1.49858 0.319652 -2.12644 1.48495 0.315433 -2.10256 1.4711 0.311212 
-2.07977 1.45802 0.307184 -4.31875 -2.5165 0.648671 -2.34149 1.56836 0.345404 
-2.35227 1.58586 0.347348 -2.33166 1.57699 0.34381 -2.32079 1.5762 0.341972 
-2.29152 1.55965 0.336918 -2.26333 1.54377 0.332052 -2.24489 1.53602 0.328888 
-2.22645 1.52811 0.325722 -2.20801 1.52004 0.322555 -2.19761 1.45793 0.313165 
-2.18891 1.45844 0.311739 -2.18887 1.4662 0.311788 -2.18883 1.47397 0.311838 
-2.18878 1.48173 0.311887 -2.18009 1.48204 0.31046 -4.39497 -2.60505 0.629007 
-4.15095 -2.43132 0.591113 -2.23133 1.46404 0.311422 -2.241 1.48009 0.313091 
-4.43393 -2.63309 0.618914 -2.4316 1.51617 0.335781 -2.42076 1.51665 0.334088 
-2.39805 1.50778 0.330471 -2.398 1.51647 0.330527 -2.36666 1.5005 0.325508 
-2.33532 1.48425 0.320488 -2.30507 1.46859 0.31564 -4.71564 -3.30349 0.640818 
-4.61661 -3.21001 0.626402 -4.18043 -2.45561 0.565387 -3.59666 2.01042 0.508739 
-3.56854 2.0062 0.504422 -2.42927 1.51621 0.327248 -2.40659 1.50749 0.323728 
-3.51096 1.98491 0.482911 -3.53781 2.01623 0.487121 -3.53773 2.02996 0.487208 
-3.51073 2.02573 0.483171 -2.54568 1.55156 0.336584 -2.52087 1.54234 0.332836 
-2.48421 1.52396 0.327265 -2.48416 1.53305 0.327323 -2.44965 1.51583 0.32208 
-4.13386 -2.43102 0.528424 -3.48155 1.96808 0.465937 -3.5073 1.99858 0.469871 
-3.53412 2.03002 0.473967 -3.53405 2.04374 0.474055 -3.48125 2.02205 0.466281 
-3.48117 2.03554 0.466367 -2.59388 1.57019 0.334991 -2.5551 1.55103 0.329259 
-2.50666 1.52429 0.322076 -3.07222 1.80809 0.394873 -2.97759 1.75368 0.381214 
-2.94207 1.74002 0.376135 -2.91437 1.52911 0.329699 -2.7367 1.42801 0.306979 
-4.39489 -3.05221 0.464327 -4.3097 -2.97059 0.454703 -2.87727 1.50769 0.314785 
-2.66132 1.38211 0.288045 -2.58005 1.34035 0.27802 -4.47959 -3.1199 0.457294 
-4.34716 -3.00217 0.442813 -4.38772 -2.59728 0.450348 -2.84131 1.48694 0.300292 
-2.63095 1.36459 0.275115 -2.56472 1.33223 0.267231 -4.47488 -3.11982 0.440036 
-4.38559 -3.03456 0.43068 -4.34202 -2.89826 0.426779 -4.3849 -2.9121 0.431461 
-4.42715 -2.62563 0.438178 -2.60171 1.34774 0.262547 -2.54942 1.32411 0.256552 
-4.29561 -2.86763 0.405804 -4.29552 -2.85051 0.405914 -4.51368 -2.68447 0.430486 
-2.52243 1.3085 0.244673 -4.33331 -2.96731 0.392945 -4.33292 -2.8981 0.393387 
-4.60429 -2.74609 0.422439 -3.18916 1.52611 0.306185 -3.25507 1.57594 0.313331 
-3.23265 1.57578 0.311017 -2.53167 1.31603 0.236896 -4.46007 -2.99436 0.38906 
-3.18591 1.52617 0.294279 -3.25174 1.576 0.301141 -4.41074 -3.01444 0.367432 
-4.54634 -2.69642 0.382487 -4.32177 -2.53454 0.362312 -3.18267 1.52623 0.282373 
-4.49649 -3.00978 0.35859 -4.59146 -3.06055 0.366847 -3.24524 1.55085 0.276601 
-3.26744 1.57609 0.278787 -3.33513 1.6033 0.272828 -3.33505 1.61635 0.272911 
-3.4047 1.64444 0.26652 -3.40462 1.65781 0.266606 -3.40118 1.6445 0.253613 
-3.4011 1.65788 0.253698 -3.44832 1.67314 0.244639 -3.44825 1.68675 0.244725 
-2.53971 1.32314 0.175212 -3.4711 1.68809 0.233446 -3.47102 1.70181 0.233534 
-2.71646 1.41742 0.179122 -2.62999 1.37272 0.172805 -3.46749 1.68815 0.220205 
-2.71374 1.41747 0.169149 -2.62737 1.37277 0.163207 -3.60182 1.73753 0.215718 
-3.5176 1.70462 0.210355 -2.6963 1.40819 0.158215 -2.62475 1.37281 0.153609 
-3.59805 1.7376 0.201879 -3.46035 1.67456 0.193636 -2.6642 1.38957 0.146512 
-2.59484 1.35541 0.142343 -3.56595 1.72184 0.186446 -3.43051 1.65985 0.178919 
-2.6479 1.38096 0.135957 -2.57967 1.3474 0.13215 -3.5905 1.73773 0.1742 
-3.42693 1.65992 0.165793 -2.70286 1.41766 0.129258 -2.61691 1.37295 0.124815 
-3.50299 1.69092 0.15637 -3.39823 1.6458 0.151469 -2.77659 1.45569 0.122896 
-2.73049 1.43704 0.120747 -2.64254 1.39113 0.116578 -3.49932 1.69098 0.142896 
-3.39468 1.64586 0.138452 -2.71206 1.42709 0.109954 -2.62631 1.38244 0.106261 
-3.46849 1.67581 0.128364 -3.39114 1.64593 0.125435 -2.69471 1.41781 0.0993396 
-2.62367 1.38249 0.0965985 -3.46485 1.67587 0.115009 -3.36256 1.63181 0.11155 
-2.6774 1.40852 0.0888533 -2.59289 1.36441 0.0859453 -3.43517 1.66128 0.100864 
-3.38404 1.64605 0.0994015 -2.73521 1.42615 0.0806721 -2.70391 1.41684 0.0797771 
-3.40554 1.64669 0.0869473 -3.38049 1.64612 0.0863847 -2.68667 1.39728 0.0692893 
-2.65749 1.38908 0.068585 -3.68171 1.77468 0.0796711 -3.48103 1.67734 0.0754382 
-2.68395 1.39733 0.0593165 -2.61325 1.36265 0.0578226 -3.61759 1.7413 0.0642814 
-3.45037 1.66229 0.0615002 -2.61062 1.3627 0.0481606 -3.58471 1.72522 0.0498195 
-3.44673 1.66235 0.0481452 -2.70857 1.41649 0.03977 -2.64944 1.38923 0.0390504 
-3.58091 1.72529 0.0358566 -3.4172 1.64788 0.0345724 -2.70582 1.41654 0.0296646 
-2.66125 1.39854 0.0293347 -3.54917 1.70978 0.0217827 -3.43945 1.66248 0.0214352 
-2.70307 1.41658 0.0195592 -2.65855 1.39859 0.0194259 -3.38415 1.63347 0.0081016 
-2.68482 1.40677 0.00945302 -2.62693 1.3801 0.00951465 -3.40637 1.64807 -0.00514988 
-2.63876 1.37921 -0.000394147 -2.5696 1.34505 -2.84724e-05 -3.53786 1.70998 -0.0197357 
-3.42853 1.66268 -0.0186299 -2.63608 1.37926 -0.010239 -2.55361 1.33649 -0.0094494 
-3.32401 1.60574 -0.0305991 -2.6478 1.38851 -0.020275 -2.57778 1.35375 -0.0192829 
-1.98003 1.32341 -0.00914158 -1.95225 1.30635 -0.00876848 -3.34517 1.61976 -0.0439552 
-2.6451 1.38856 -0.0301838 -2.5618 1.34519 -0.0286444 -1.95658 1.30467 -0.0157423 
-1.91652 1.27671 -0.0150461 -3.31697 1.60587 -0.0564132 -2.65677 1.39781 -0.0404119 
-2.58692 1.36312 -0.0387978 -3.31345 1.60593 -0.0693204 -2.7608 1.44458 -0.0533693 
-2.71358 1.42538 -0.0520398 -3.30994 1.60599 -0.0822275 -2.74259 1.43491 -0.0633374 
-2.71079 1.42543 -0.0622778 -3.30642 1.60605 -0.0951345 -2.7234 1.42459 -0.0731318 
-2.69368 1.41634 -0.0720042 -3.35195 1.63404 -0.110037 -2.70527 1.41492 -0.0828213 
-2.67558 1.4066 -0.0815614 -3.34837 1.6341 -0.123163 -2.70247 1.41497 -0.0930592 
-2.68813 1.41644 -0.092352 -3.32041 1.60671 -0.135159 -1.97216 1.30099 -0.065281 
-1.97925 1.31439 -0.0655765 -1.95783 1.30308 -0.0645059 -3.41876 1.65052 -0.153795 
-3.36675 1.63505 -0.150886 -1.96314 1.2949 -0.071891 -1.98445 1.32059 -0.0729658 
-1.97729 1.3217 -0.0725459 -3.41508 1.65059 -0.167269 -3.36314 1.63512 -0.164126 
-1.93372 1.29252 -0.077142 -1.93368 1.2996 -0.0770969 -1.93364 1.30668 -0.0770518 
-1.92649 1.30743 -0.0766021 -1.91934 1.30811 -0.0761529 -1.9193 1.31512 -0.0761082 
-1.89998 1.30468 -0.0749671 -1.88066 1.29407 -0.0738273 -1.93929 1.39023 -0.0769003 
-1.91895 1.37822 -0.0757058 -1.91282 1.37946 -0.0753165 -1.88741 1.36231 -0.073837 
-1.91274 1.39343 -0.0752274 -3.41141 1.65065 -0.180743 -3.41133 1.66462 -0.180654 
-1.98766 1.33416 -0.0874521 -1.97343 1.32904 -0.0865309 -1.97339 1.33631 -0.0864846 
-1.98044 1.34987 -0.0868749 -1.95911 1.33819 -0.0855187 -1.9175 1.30814 -0.0829172 
-1.92456 1.32155 -0.0833086 -1.89816 1.30472 -0.0816446 -1.87886 1.2941 -0.0804179 
-1.95161 1.40359 -0.0846249 -1.91711 1.37825 -0.0824701 -1.89173 1.36124 -0.0808754 
-1.88561 1.36234 -0.0804596 -1.91091 1.39346 -0.0819643 -4.3828 1.9966 -0.2618 
-4.33703 1.99149 -0.258562 -3.30629 1.59347 -0.187312 -3.33056 1.62082 -0.188882 
-2.68858 1.40461 -0.144317 -1.92967 1.34921 -0.0904377 -1.9023 1.33111 -0.0885902 
-1.89618 1.33243 -0.0881456 -1.90931 1.3516 -0.0889684 -1.91534 1.36426 -0.0893239 
-1.95681 1.41028 -0.092011 -4.28773 1.95038 -0.27308 -4.20148 1.92384 -0.266682 
-4.07976 1.87795 -0.257702 -3.96514 1.83467 -0.249247 -3.85762 1.79409 -0.241315 
-3.72376 1.73836 -0.231471 -3.30274 1.59354 -0.200329 -3.37765 1.64974 -0.205688 
-4.11493 1.86408 -0.277501 -4.07535 1.86091 -0.274329 -3.99731 1.83723 -0.268179 
-3.92333 1.81496 -0.262347 -3.81898 1.77582 -0.254167 -3.7197 1.73843 -0.246385 
-3.34878 1.62165 -0.217177 -3.374 1.6498 -0.219043 -2.65366 1.38604 -0.162538 
-2.61011 1.36864 -0.15913 -3.84917 1.79424 -0.272349 -3.37044 1.63603 -0.232487 
-2.65091 1.38609 -0.172643 -2.60741 1.36869 -0.169039 -3.81061 1.77597 -0.28489 
-3.74388 1.75598 -0.279012 -3.3668 1.63609 -0.245842 -2.66329 1.3958 -0.184052 
-3.84071 1.79439 -0.303383 -3.73977 1.75606 -0.294072 -3.33796 1.62184 -0.256899 
[...]
POINT_DATA 9160
SCALARS z_coord float
LOOKUP_TABLE default
0.91733 0.926703 0.910766 0.901761 0.923038 0.923144 0.897759 0.897863 0.505295 
0.881927 0.891353 0.49392 0.496864 0.866094 0.875351 0.485428 0.482904 0.485539 
0.850471 0.471813 0.471868 0.469644 0.467165 0.8263 0.468386 0.463468 0.461284 
0.455067 0.450483 0.448096 0.802975 0.4514 0.44451 0.44217 0.79545 0.436151 
0.433856 0.433911 0.431616 0.763611 0.446446 0.446504 0.441496 0.436947 0.763448 
0.452242 0.452301 0.452361 0.45242 0.73237 0.445911 0.4484 0.44603 0.443439 
0.441068 0.454821 0.444079 0.441547 0.439014 0.434102 0.434161 0.431842 0.74599 
0.738235 0.753536 0.745371 0.705199 0.696012 0.672163 0.328618 0.325566 0.324064 
0.319652 0.315433 0.311212 0.307184 0.648671 0.345404 0.347348 0.34381 0.341972 
0.336918 0.332052 0.328888 0.325722 0.322555 0.313165 0.311739 0.311788 0.311838 
0.311887 0.31046 0.629007 0.591113 0.311422 0.313091 0.618914 0.335781 0.334088 
0.330471 0.330527 0.325508 0.320488 0.31564 0.640818 0.626402 0.565387 0.508739 
0.504422 0.327248 0.323728 0.482911 0.487121 0.487208 0.483171 0.336584 0.332836 
0.327265 0.327323 0.32208 0.528424 0.465937 0.469871 0.473967 0.474055 0.466281 
0.466367 0.334991 0.329259 0.322076 0.394873 0.381214 0.376135 0.329699 0.306979 
0.464327 0.454703 0.314785 0.288045 0.27802 0.457294 0.442813 0.450348 0.300292 
0.275115 0.267231 0.440036 0.43068 0.426779 0.431461 0.438178 0.262547 0.256552 
0.405804 0.405914 0.430486 0.244673 0.392945 0.393387 0.422439 0.306185 0.313331 
0.311017 0.236896 0.38906 0.294279 0.301141 0.367432 0.382487 0.362312 0.282373 
0.35859 0.366847 0.276601 0.278787 0.272828 0.272911 0.26652 0.266606 0.253613 
0.253698 0.244639 0.244725 0.175212 0.233446 0.233534 0.179122 0.172805 0.220205 
0.169149 0.163207 0.215718 0.210355 0.158215 0.153609 0.201879 0.193636 0.146512 
0.142343 0.186446 0.178919 0.135957 0.13215 0.1742 0.165793 0.129258 0.124815 
0.15637 0.151469 0.122896 0.120747 0.116578 0.142896 0.138452 0.109954 0.106261 
0.128364 0.125435 0.0993396 0.0965985 0.115009 0.11155 0.0888533 0.0859453 0.100864 
0.0994015 0.0806721 0.0797771 0.0869473 0.0863847 0.0692893 0.068585 0.0796711 0.0754382 
0.0593165 0.0578226 0.0642814 0.0615002 0.0481606 0.0498195 0.0481452 0.03977 0.0390504 
0.0358566 0.0345724 0.0296646 0.0293347 0.0217827 0.0214352 0.0195592 0.0194259 0.0081016 
0.00945302 0.00951465 -0.00514988 -0.000394147 -2.84724e-05 -0.0197357 -0.0186299 -0.010239 -0.0094494 
-0.0305991 -0.020275 -0.0192829 -0.00914158 -0.00876848 -0.0439552 -0.0301838 -0.0286444 -0.0157423 
-0.0150461 -0.0564132 -0.0404119 -0.0387978 -0.0693204 -0.0533693 -0.0520398 -0.0822275 -0.0633374 
-0.0622778 -0.0951345 -0.0731318 -0.0720042 -0.110037 -0.0828213 -0.0815614 -0.123163 -0.0930592 
-0.092352 -0.135159 -0.065281 -0.0655765 -0.0645059 -0.153795 -0.150886 -0.071891 -0.0729658 
-0.0725459 -0.167269 -0.164126 -0.077142 -0.0770969 -0.0770518 -0.0766021 -0.0761529 -0.0761082 
-0.0749671 -0.0738273 -0.0769003 -0.0757058 -0.0753165 -0.073837 -0.0752274 -0.180743 -0.180654 
-0.0874521 -0.0865309 -0.0864846 -0.0868749 -0.0855187 -0.0829172 -0.0833086 -0.0816446 -0.0804179 
-0.0846249 -0.0824701 -0.0808754 -0.0804596 -0.0819643 -0.2618 -0.258562 -0.187312 -0.188882 
-0.144317 -0.0904377 -0.0885902 -0.0881456 -0.0889684 -0.0893239 -0.092011 -0.27308 -0.266682 
-0.257702 -0.249247 -0.241315 -0.231471 -0.200329 -0.205688 -0.277501 -0.274329 -0.268179 
-0.262347 -0.254167 -0.246385 -0.217177 -0.219043 -0.162538 -0.15913 -0.272349 -0.232487 
-0.172643 -0.169039 -0.28489 -0.279012 -0.245842 -0.184052 -0.303383 -0.294072 -0.256899 
-0.195506 -0.336518 -0.322291 -0.315613 -0.27014 -0.36076 -0.35275 -0.341403 -0.285907 
-0.381915 -0.377567 -0.373327 -0.369089 -0.293981 -0.417814 -0.40808 -0.403325 -0.403212 
-0.315659 -0.304549 -0.435353 -0.435237 -0.326148 -0.314811 -0.452243 -0.342607 -0.336431 
-0.46419 -0.45881 -0.448544 -0.349759 -0.355992 -0.492522 -0.369555 -0.369466 -0.372717 
-0.372627 -0.393676 -0.389992 -0.293884 -0.279935 -0.400082 -0.399992 -0.287483 -0.289095 
-0.290857 -0.290798 -0.288916 -0.509072 -0.49792 -0.402722 -0.409887 -0.299953 -0.299893 
-0.297957 -0.297897 -0.543352 -0.531252 -0.513979 -0.492867 -0.415963 -0.423361 -0.566826 
-0.566712 -0.547838 -0.530038 -0.461938 -0.449126 -0.331135 -0.534843 -0.54055 -0.534634 
-0.450398 -0.454363 -0.53952 -0.539418 -0.523155 -0.463872 -0.463783 -0.522594 -0.527482 
-0.548979 -0.473053 -0.472965 -0.407156 -0.537031 -0.477925 -0.482079 -0.481992 -0.490552 
-0.490463 -0.541145 -0.499763 -0.49532 -0.504265 -0.438565 -0.53418 -0.534091 -0.517392 
-0.450028 -0.557577 -0.504367 -0.512745 -0.571293 -0.571202 -0.565889 -0.565799 -0.560682 
-0.555567 -0.560504 -0.560415 -0.56535 -0.56526 -0.560148 -0.570295 -0.564991 -0.569933 
-0.575053 -0.580172 -0.57487 -0.564362 -0.554243 -0.544512 -0.53517 -0.579661 -0.574423 
-0.564237 -0.564149 -0.564062 -0.563974 -0.568833 -0.563799 -0.563712 -0.563624 -0.56848 
-0.568392 -0.563362 -0.563274 -0.568127 -0.578314 -0.583558 -0.583468 -0.583377 -0.57282 
-0.567598 -0.562574 -0.534458 -0.669258 -0.560899 -0.512327 -0.69157 -0.671381 -0.671284 
-0.677565 -0.664501 -0.559558 -0.50433 -0.500583 -0.895064 -0.579911 -0.584465 -0.565111 
-0.565035 -0.564959 -0.556412 -0.544204 -0.57236 -0.572285 -0.57221 -0.570869 -0.570796 
-0.496452 -0.595966 -0.573499 -0.569299 -0.503023 -0.585301 -0.585229 -0.585157 -0.580262 
-0.58019 -0.643335 -0.658091 -0.587665 -0.582909 -0.594268 -0.598012 -0.602693 -0.598313 
-0.606597 -0.600655 -0.600585 -0.592096 -0.592027 -0.60883 -0.577558 -0.585171 -0.585106 
-0.584975 -0.594246 -0.590164 -0.602376 -0.635732 -0.584035 -0.583971 -0.583907 -0.583843 
-0.583778 -0.592574 -0.588425 -0.617222 -0.582415 -0.582352 -0.582289 -0.578541 -0.567992 
-0.579364 -0.588396 -0.588334 -0.592017 -0.584751 -0.580944 -0.587043 -0.5943 -0.58692 
-0.586858 -0.597625 -0.562496 -0.562435 -0.565805 -0.600231 -0.611472 -0.61944 -0.615213 
-0.599983 -0.620801 -0.620737 -0.558156 -0.554903 -0.581136 -0.5844 -0.584341 -0.584282 
-0.607306 -0.607244 -0.607182 -0.614641 -0.560302 -0.556999 -0.579695 -0.583011 -0.579579 
-0.579521 -0.579463 -0.594673 -0.594614 -0.594554 -0.594494 -0.597794 -0.562538 -0.56248 
-0.569079 -0.575252 -0.575195 -0.593166 -0.593107 -0.564876 -0.564819 -0.57409 -0.57751 
-0.577454 -0.563823 -0.560372 -0.563751 -0.573516 -0.567034 -0.564093 -0.560833 -0.556649 
-0.556595 -0.55654 -0.569169 -0.598301 -0.59499 -0.591355 -0.581863 -0.575301 -0.552832 
-0.549601 -0.552725 -0.552672 -0.571018 -0.606834 -0.599848 -0.586923 -0.577246 -0.545985 
-0.543355 -0.622565 -0.618827 -0.615424 -0.548303 -0.548252 -0.553118 -0.550415 -0.550364 
-0.550313 -0.558084 -0.558033 -0.557982 -0.554226 -0.554175 -0.554125 -0.554054 -0.548276 
-0.550649 -0.5506 -0.550026 -0.549978 -0.523657 -0.52148 -0.521111 -0.525253 -0.523022 
-0.529744 -0.5297 -0.534224 -0.53418 -0.534136 -0.531851 -0.531807 -0.538386 -0.538342 
-0.538299 -0.535609 -0.535566 -0.540035 -0.537697 -0.539949 -0.53761 -0.537567 -0.541824 
-0.539459 -0.534772 -0.532408 -0.553032 -0.541156 -0.542787 -0.545121 -0.545078 -0.549116 
-0.549074 -0.549031 -0.546987 -0.544542 -0.5445 -0.544458 -0.553461 -0.553419 -0.553377 
-0.548474 -0.546407 -0.546366 -0.543894 -0.548131 -0.54809 -0.548049 -0.552512 -0.551866 
-0.551826 -0.551785 -0.551744 -0.547048 -0.547021 -0.548804 -0.548777 -0.549991 -0.549964 
-0.549936 -0.549909 -0.549882 -0.551061 -0.554269 -0.554241 -0.554214 -0.554187 -0.554159 
-0.554132 -0.554105 -0.55405 -0.555277 -0.555249 -0.553109 -0.554976 -0.554949 -0.551512 
-0.551486 -0.552731 -0.552704 -0.551034 -0.551008 -0.550981 -0.129225 -0.549281 -0.550545 
-0.550518 -0.129573 -0.127625 -0.551966 -0.551939 -0.551913 -0.129259 -0.128598 -0.554606 
-0.55458 -0.554554 -0.548005 -0.54798 -0.12723 -0.126568 -0.547942 -0.547917 -0.12752 
-0.127514 -0.55042 -0.549034 -0.127794 -0.55156 -0.550064 -0.129406 -0.554018 -0.549805 
-0.54978 -0.55373 -0.550692 -0.550668 -0.552016 -0.550619 -0.548871 -0.550228 -0.550203 
-0.549782 -0.552057 -0.552904 -0.553715 -0.55092 -0.550897 -0.553583 -0.553415 -0.553392 
-0.548036 -0.548754 -0.548732 -0.547744 -0.548467 -0.548445 -0.549703 -0.54968 -0.549658 
-0.550865 -0.550843 -0.551575 -0.552737 -0.552715 -0.552693 -0.5554 -0.555378 -0.555355 
-0.557285 -0.557262 -0.55724 -0.557218 -0.558311 -0.558289 -0.55672 -0.557776 -0.557334 
-0.56069 -0.559085 -0.561592 -0.559978 -0.563289 -0.560865 -0.559242 0.473677 0.521838 
0.51297 0.507128 0.498204 0.486366 0.474235 0.465255 -0.294009 0.522731 0.513807 
0.504883 0.493003 0.484135 0.475267 0.471976 0.462996 0.229519 0.219319 -0.300294 
-0.315523 0.520486 0.505689 0.247968 0.23624 0.22726 0.215868 -0.302553 -0.32218 
0.553107 0.543722 0.248401 0.236589 0.225001 0.214829 -0.304812 -0.322237 0.560131 
0.247536 0.234302 -0.307071 -0.329129 0.245205 0.233291 -0.317663 -0.333779 0.647776 
0.577709 0.564794 0.242875 0.23099 -0.319978 -0.33382 0.642899 0.637511 0.632003 
0.336543 0.331179 0.323922 0.241949 0.228689 -0.301886 -0.308979 0.644535 0.631229 
0.625766 0.332351 0.328864 0.321591 0.240992 0.226388 -0.304188 -0.315405 0.638208 
0.628884 0.308141 0.300733 0.288121 0.25153 0.242382 0.233234 0.222867 -0.308517 
-0.315637 0.635863 0.298402 0.287418 0.275131 0.263068 0.255518 0.249229 0.238763 
-0.317428 -0.320036 0.649543 0.294306 0.285102 0.277544 0.265223 0.25466 0.245568 
0.23778 -0.317575 -0.329174 0.679266 0.664953 -0.308427 -0.312942 -0.645066 -0.650262 
-0.656595 -0.652638 -0.605062 -0.59971 -0.654434 -0.655014 -0.642489 -0.622254 -0.297454 
-0.308631 -0.64365 -0.648679 -0.636542 -0.301742 -0.310946 -0.629078 -0.642284 -0.638541 
-0.610351 -0.631379 -0.648985 -0.640821 0.834582 -0.61261 -0.62562 -0.638742 -0.640034 
-0.64451 -0.641476 -0.622845 -0.634523 -0.610839 -0.612094 -0.629135 -0.63131 -0.628372 
-0.62931 -0.633577 0.698123 0.681743 -0.605331 -0.622288 -0.62742 -0.625952 -0.61945 
-0.620575 -0.624696 0.752235 0.735532 0.668913 0.65781 0.651531 -0.307775 -0.603686 
-0.62459 -0.63007 -0.630851 -0.624289 -0.614592 0.760298 0.749281 0.645483 0.634548 
0.623612 0.612677 -0.61381 -0.626891 -0.636202 -0.612022 -0.609346 0.741149 0.647356 
0.636339 0.616401 0.6014 -0.303052 -0.607005 -0.628241 -0.629192 -0.641328 0.749333 
0.743738 -0.237233 -0.248411 -0.269408 -0.276927 -0.280509 -0.293903 -0.613197 -0.630895 
-0.639552 0.751984 0.746566 -0.23792 -0.249053 -0.273817 -0.283452 -0.290955 -0.296279 
-0.610214 -0.627859 -0.640928 -0.645709 0.749213 0.749351 -0.220078 -0.223327 -0.228068 
-0.237703 -0.26843 -0.280278 -0.290042 -0.599504 -0.643132 -0.639915 0.763186 0.746441 
0.746536 -0.618031 -0.631986 -0.644704 0.777513 0.754911 0.749256 -0.624537 -0.637458 
-0.638067 -0.646935 0.780624 -0.612063 -0.617468 -0.635531 -0.652147 -0.640298 0.782849 
0.783159 0.78369 -0.618799 -0.628369 -0.637939 -0.672037 0.785848 0.780301 0.768939 
-0.616845 -0.626351 -0.674398 0.77722 0.771737 0.61388 0.598191 -0.608722 -0.605706 
-0.623614 -0.671821 0.774405 0.7689 0.615522 0.604161 -0.611145 -0.616451 -0.630415 
-0.631133 -0.669734 0.777339 0.760401 0.617344 -0.626411 -0.631894 -0.672095 0.768776 
0.757586 0.61912 0.607578 0.596035 0.584492 0.568655 -0.638712 0.771667 0.749152 
0.621071 0.609434 0.597797 0.581589 0.565774 -0.627042 0.757555 0.705099 0.693367 
0.587779 0.571595 0.551441 -0.619735 0.760294 0.696677 0.695791 0.580305 0.568668 
0.552697 0.699196 0.692816 0.554103 0.534228 0.522776 0.515166 0.503624 0.492081 
0.405897 0.397148 0.802462 0.737484 0.704671 0.709132 0.690822 0.578925 0.567193 
0.477635 0.473337 0.461605 0.449873 0.438141 0.429653 0.414678 0.405999 0.394172 
0.382346 0.373289 0.361367 0.346866 -0.754635 0.831277 0.718319 0.686645 0.695941 
0.584877 0.572955 0.482118 0.473985 0.465662 0.450331 0.438505 0.426678 0.414851 
0.403024 0.391198 0.379371 0.367544 0.358368 0.346447 -0.745487 -0.732343 0.778505 
0.766678 0.654672 0.586507 0.314919 0.303187 0.289302 -0.711664 -0.705505 0.787832 
0.763703 0.588087 0.311968 0.300236 0.286374 -0.726757 0.778545 0.748936 0.297285 
0.285553 0.27181 0.258256 -0.762225 -0.653107 0.712313 0.671075 0.270869 0.259138 
0.247406 -0.772436 -0.654085 -0.646038 -0.65114 0.748705 0.267918 0.256186 0.244454 
-0.761719 -0.651603 -0.643206 0.757686 0.241503 0.231426 0.218039 -0.714811 -0.739489 
0.238552 0.228451 0.215088 -0.700007 -0.717688 0.225476 0.212137 -0.685914 0.219334 
0.207696 0.219526 0.206234 -0.640879 0.238479 0.226747 0.23723 0.225403 0.600566 
0.235933 0.224011 0.597465 0.246684 0.584812 0.240131 -0.723617 0.577211 0.237156 
-0.681151 0.232504 -0.643946 0.229553 -0.644924 0.224972 0.213334 -0.667634 0.220438 
0.207453 -0.660158 0.213076 0.201801 -0.683619 0.211657 0.197634 -0.661268 0.454984 
0.442761 0.208799 0.196128 -0.642969 -0.648411 0.997958 0.993571 0.424058 0.41524 
0.20594 0.193292 -0.634025 -0.644642 -0.640636 0.990399 0.994692 0.990276 0.421009 
0.412165 0.203082 0.190455 -0.636696 -0.632861 -0.643249 0.98698 0.421314 0.412341 
0.227754 0.213073 -0.644216 -0.640401 0.418239 0.406016 0.223199 0.210192 -0.642037 
-0.647706 0.406706 0.390833 0.375056 0.223504 0.208753 -0.642936 -0.643981 -0.645667 
0.365226 0.25126 0.235637 0.220553 0.207335 -0.635916 -0.641592 0.95764 0.829137 
0.365091 0.246385 0.230986 0.217602 0.20155 -0.648438 -0.664493 0.912331 0.925149 
0.909675 0.903395 0.364784 0.346051 0.333293 0.315445 0.302907 0.288089 0.273574 
0.257282 0.24156 0.229639 -0.644518 -0.655708 -0.641337 -0.656983 0.902544 0.896465 
0.863569 0.358614 0.342842 0.330085 0.312291 0.299754 0.287216 0.270473 0.25619 
-0.642159 -0.658523 -0.644773 -0.650148 -0.645755 -0.652036 -0.652963 -0.669456 -0.639435 
-0.650538 -0.666967 -0.642228 -0.648438 -0.639028 -0.650217 -0.650841 -0.646043 -0.647814 
-0.633721 -0.64193 -0.659141 -0.648924 -0.654965 -0.667008 -0.656613 -0.652647 -0.675983 
-0.665092 -0.660985 -0.667401 -0.662516 -0.642003 -0.648255 -0.665467 -0.649407 -0.644954 
-0.637039 -0.637927 -0.639124 -0.650856 -0.630344 -0.642076 -0.643925 -0.650437 -0.645083 
-0.645968 -0.646924 -0.631488 -0.643509 -0.64456 -0.629595 -0.622491 -0.629079 -0.635708 
-0.624244 -0.620156 -0.628539 -0.61817 -0.619542 -0.631563 -0.600302 -0.612128 -0.613569 
-0.62023 -0.602948 -0.604573 -0.611307 -0.616693 -0.623684 -0.619819 -0.626785 -0.654229 
-0.669704 -0.67767 -0.68551 -0.6551 -0.67163 -0.680172 -0.680551 -0.673597 -0.708848 
-0.677489 -0.611723 -0.628636 -0.662463 -0.687625 -0.617639 -0.609644 -0.607181 0.578187 
-0.591568 -0.589401 -0.577198 0.449415 0.444027 0.46292 0.446206 0.525791 0.508679 
0.474456 0.515736 0.498822 0.487263 0.341764 0.321181 0.297935 -0.655952 -0.657079 
-0.650403 -0.651637 -0.645573 -0.633109 -0.61546 -0.599422 -0.597533 -0.604929 -0.623047 
-0.644565 -0.596952 -0.599068 -0.601121 -0.603148 -0.611201 -0.612832 -0.602778 -0.593571 
-0.595462 -0.608111 -0.620761 -0.616708 -0.6182 -0.614297 -0.632029 -0.622803 -0.635129 
-0.658965 -0.677722 -0.68404 -0.620447 -0.62711 -0.628374 -0.651349 -0.681079 -0.648846 
-0.67831 -0.690636 -0.702962 -0.702876 -0.679767 -0.712157 -0.700093 -0.682944 -0.672498 
-0.668008 -0.668379 -0.673857 -0.670257 -0.661518 -0.648559 -0.640568 -0.626018 -0.715232 
-0.721093 -0.697116 -0.66487 -0.65543 -0.656088 -0.656732 -0.65421 -0.654859 -0.642308 
-0.630698 -0.635616 -0.624369 -0.563714 -0.659308 -0.659914 -0.660532 -0.574912 -0.652355 
-0.662455 -0.663038 -0.579217 -0.647039 -0.639173 -0.569587 -0.614818 -0.553747 -0.598222 
-0.538107 -0.587245 -0.588398 -0.529558 -0.527318 -0.589324 -0.583642 -0.525843 -0.517464 
-0.504302 -0.502921 -0.587871 -0.582421 -0.580236 -0.584799 -0.530098 -0.503909 -0.49721 
-0.506654 -0.575938 -0.580409 -0.581738 -0.582903 -0.540902 -0.525593 -0.525229 -0.534333 
-0.577906 -0.579003 -0.577204 -0.584819 -0.582194 -0.589847 -0.597501 1.52096 -0.5324 
-0.584119 -0.591773 -0.596264 -0.594278 -0.594293 -0.595564 -0.596319 -0.59731 -0.601634 
-0.605508 -0.603398 -0.604279 -0.605434 -0.60606 1.48248 1.2423 1.31333 -0.595008 
-0.589744 -0.593916 -0.595088 -0.593157 -0.594001 -0.595078 -0.599077 -0.603394 -0.607259 
-0.605124 -0.60319 -0.607128 -0.610597 1.49513 1.28352 1.22847 1.23853 1.22354 
1.30908 -0.499314 -0.497999 -0.613192 -0.611054 1.52515 1.49087 1.44063 1.29272 
1.25193 -0.611959 -0.607253 1.50374 1.42043 1.30221 -0.55128 -0.553945 -0.601372 
-0.599577 0.929882 0.908988 0.952013 0.936526 0.382976 0.367971 -0.501167 0.910873 
1.00203 0.965525 0.949872 0.40535 0.390188 0.371375 0.35637 -0.488359 -0.503061 
-0.517763 -0.556093 -0.553234 0.913515 1.04425 1.00566 0.969076 0.953423 0.407992 
0.40879 0.389784 -0.485024 -0.499726 -0.509119 -0.564448 -0.550028 0.904511 0.892865 
1.05943 1.00928 0.419117 0.400447 0.38218 -0.486821 -0.543777 -0.552506 0.907153 
0.895507 0.992048 0.406937 -0.473399 -0.487956 -0.540507 -0.549268 0.902663 0.891111 
0.950999 1.15352 1.10832 0.442804 0.424446 0.410174 -0.508413 -0.512148 -0.531758 
-0.54603 0.889146 0.911024 1.05938 1.09956 0.441956 0.423706 0.409575 -0.490731 
-0.539581 -0.554138 -0.551335 0.891788 0.893928 0.906228 0.955945 1.04479 1.03979 
0.449344 0.426912 -0.504372 -0.519692 -0.572053 -0.568514 -0.571262 0.89443 1.03462 
1.02658 1.03255 0.444249 0.426199 0.240697 0.220084 0.207603 0.194891 0.181888 
0.171665 0.153786 -0.603947 -0.613074 -0.614999 0.913147 0.901594 1.05197 1.02524 
0.451669 0.445668 0.329879 0.314558 0.317838 0.30459 -0.580513 -0.609484 -0.611486 
0.915767 0.904215 1.06217 0.477037 0.457554 0.372003 0.353593 0.35933 0.361832 
-0.582048 -0.578539 0.92994 0.918388 0.906836 1.03831 0.781896 0.766243 0.758504 
0.74268 0.719285 0.490034 0.379099 0.367471 0.359269 0.365628 -0.549437 -0.557895 
0.932561 0.921009 0.916644 1.07666 0.999444 0.973281 0.957628 0.932228 0.825387 
0.809563 0.79374 0.707183 0.69153 0.668955 0.646713 0.631392 0.493509 0.365465 
-0.538498 1.00836 0.9893 0.985435 0.98139 0.96251 0.951047 0.932435 0.928122 
1.06388 1.00303 0.976832 0.971387 0.945527 0.820304 0.813153 0.79733 0.710734 
0.695081 0.672469 0.656982 0.641495 0.496985 0.365393 -0.515247 1.06168 1.04177 
1.02242 1.01096 0.991881 0.979178 0.939254 0.923768 0.908281 0.911683 0.905254 
0.880037 0.864213 0.84839 0.823855 0.808202 0.660495 0.645009 0.500461 0.490143 
0.484453 0.357866 -0.512272 1.12871 1.08107 1.05267 1.03284 1.01356 0.994461 
0.972857 0.936976 0.902266 0.924876 0.918786 0.883627 0.867803 0.85198 0.827406 
0.787087 0.664009 0.641819 0.483044 0.457976 0.447196 0.361456 1.15078 1.11048 
0.667522 0.652036 0.481683 0.461451 0.446131 0.365045 1.35043 1.29966 1.16328 
1.12203 0.67798 0.669279 0.460389 0.449607 0.388325 0.369413 0.371672 1.35361 
1.30275 0.688692 0.463829 0.44425 0.391801 0.372853 0.379585 0.312001 1.38317 
0.669429 0.467269 0.452106 0.436944 0.430277 0.399304 0.37263 0.318892 0.436054 
0.421049 0.414073 0.322561 0.43521 0.424453 0.421817 0.34601 0.316517 0.460943 
0.440817 0.425331 0.413985 0.390383 0.349721 0.329899 1.03387 0.469291 0.458094 
0.433189 0.421821 0.397871 0.346137 0.323619 0.346294 0.330471 0.429 0.404898 
0.38177 0.37017 0.339529 0.324209 0.436992 0.412536 0.392924 0.373645 0.339722 
0.327684 -0.484469 0.472608 0.456614 0.43618 0.420357 0.330426 0.324839 0.309834 
0.29206 0.476237 0.460243 0.346602 0.334636 0.319315 0.29543 -0.493149 -0.516328 
0.484966 0.459183 0.350042 0.344926 0.326032 0.301637 -0.514741 -0.539682 0.504808 
0.483494 0.453438 0.332824 0.302168 -0.522172 -0.547662 0.508477 0.487122 0.456951 
0.314522 0.297219 -0.529802 -0.55002 1.02377 1.00795 0.992124 1.00836 0.589366 
0.57919 0.556287 0.522738 0.501599 0.314901 0.300488 -0.537625 -0.558435 1.02736 
1.01154 0.995713 1.01207 0.606463 0.589536 0.459257 0.31817 0.30657 -0.570036 
1.2683 1.25248 1.23665 1.23373 1.21773 1.05141 1.05779 1.03095 0.610303 
0.586782 0.458217 0.34017 1.28534 1.26934 1.25335 1.22442 1.2086 1.05496 
1.06142 1.04543 0.925818 0.920116 0.93347 0.817273 0.782557 0.597216 0.471005 
1.24098 1.22499 1.20899 1.03654 1.05395 0.910657 0.895652 0.898654 0.828612 
0.811881 0.79515 0.761507 0.594374 0.484312 1.32979 1.32816 1.34057 1.32458 