# vtk DataFile Version 4.2
vtk output
ASCII
DATASET POLYDATA
POINTS 5670 float
-1.91277 -1.25347 0.386275 -1.91111 -1.25344 0.380178 -2.73983 0.65992 0.606087 
-2.15561 0.662689 0.457387 -2.76384 1.74046 0.620639 -2.71927 1.73631 0.60926 
-2.71921 1.74613 0.609322 -2.73353 1.77708 0.613209 -2.7479 1.79833 0.617034 
-2.74785 1.80827 0.617098 -2.70562 1.78465 0.606162 -2.70556 1.79442 0.606225 
-2.73325 1.82651 0.613525 -1.92067 -1.26889 0.376774 -1.92063 -1.26253 0.376815 
-2.72278 0.655626 0.59289 -2.69493 0.656986 0.585918 -2.15375 0.647916 0.450149 
-2.15371 0.65532 0.450196 -2.14589 0.659591 0.448269 -2.10696 0.651132 0.438442 
-2.06795 0.854121 0.430242 -2.762 1.60031 0.610083 -2.73188 1.60906 0.602599 
-2.74624 1.62926 0.606358 -2.73177 1.62883 0.602725 -2.74613 1.64915 0.606485 
-2.74607 1.6591 0.606548 -2.71718 1.64793 0.599217 -2.71713 1.65775 0.599279 
-2.71707 1.66758 0.599342 -2.71702 1.6774 0.599405 -2.73138 1.69803 0.603167 
-2.71691 1.69705 0.59953 -1.91899 -1.26886 0.370632 -1.94354 -1.28256 0.376587 
-2.73463 0.660012 0.587009 -2.69237 0.657031 0.576553 -2.14412 0.630142 0.440969 
-2.15185 0.640546 0.442958 -2.1518 0.64795 0.443006 -2.14399 0.652255 0.44111 
-2.08056 0.854838 0.42702 -2.09604 0.870331 0.430965 -2.52251 1.19096 0.538757 
-2.71504 1.56938 0.589236 -2.71488 1.59885 0.589424 -2.70152 1.59915 0.58613 
-2.70147 1.60892 0.586193 -2.71471 1.62832 0.589612 -2.70136 1.62846 0.586317 
-2.7013 1.63823 0.58638 -2.70125 1.64799 0.586442 -2.70119 1.65776 0.586504 
-2.70114 1.66753 0.586566 -2.71438 1.68727 0.589988 -2.71432 1.6971 0.590051 
-1.91732 -1.26883 0.364489 -1.94184 -1.28253 0.370344 -2.67657 0.643364 0.563859 
-2.68982 0.657077 0.567188 -2.11118 0.610936 0.426172 -2.1577 0.636177 0.437677 
-2.14214 0.637547 0.433905 -2.14205 0.652289 0.433999 -2.07869 0.854871 0.420165 
-2.10191 0.874559 0.425962 -2.15611 0.918794 0.439479 -2.53122 1.19747 0.532819 
-2.53116 1.20652 0.532877 -2.71257 1.54977 0.579632 -2.7269 1.5696 0.58327 
-2.72679 1.58938 0.583396 -2.71235 1.58907 0.579883 -1.9223 -1.26791 0.359945 
-2.77426 0.582779 0.57806 -2.67403 0.643409 0.554549 -2.08601 0.602067 0.413556 
-2.12474 0.624209 0.42299 -2.14795 0.640615 0.428671 -2.56661 1.19189 0.533086 
-2.54106 1.19553 0.527003 -1.92062 -1.26788 0.353775 -2.78606 0.576476 0.571691 
-2.786 0.586613 0.571755 -2.68477 0.647461 0.548396 -2.13072 0.597893 0.417601 
-2.06984 0.582435 0.40315 -2.07643 0.592027 0.404777 -2.08414 0.602101 0.406668 
-2.11507 0.621243 0.414097 -2.50341 1.15715 0.509632 -2.51551 1.1731 0.512604 
-2.51546 1.1821 0.512661 -2.80918 1.98123 0.587954 -1.91223 -1.25601 0.346142 
-2.78425 0.424462 0.56094 -2.81436 0.584548 0.56914 -2.82978 0.598897 0.572821 
-2.12106 0.595059 0.408709 -2.0746 0.584955 0.397876 -2.0823 0.594995 0.399735 
-2.09773 0.608069 0.403407 -2.12089 0.624278 0.408895 -2.76637 0.572844 0.548832 
-2.73649 0.575054 0.542046 -2.14236 0.596295 0.406957 -2.12686 0.597962 0.403442 
-1.90333 -1.25142 0.332649 -2.84084 0.415824 0.555169 -2.70524 0.5577 0.525909 
-2.70519 0.567524 0.525972 -2.15699 0.59493 0.403513 -2.14813 0.599165 0.401562 
-2.1322 0.681945 0.398628 -2.13215 0.689316 0.398675 -1.9194 -1.2659 0.330319 
-4.01562 0.434871 0.804187 -2.83811 0.415872 0.545132 -2.62105 0.546007 0.498397 
-2.04056 0.539363 0.370708 -2.04713 0.548719 0.372223 -2.06251 0.561335 0.375701 
-2.04044 0.560311 0.370841 -2.11484 0.675512 0.388078 -2.1148 0.682817 0.388124 
-1.91217 -1.26133 0.322965 -2.85195 0.408539 0.538619 -2.83537 0.415921 0.535095 
-2.88377 0.435603 0.545697 -2.61894 0.479731 0.488833 -2.58035 0.48 0.480501 
-2.61856 0.546051 0.489256 -2.48241 0.643579 0.460591 -2.51758 0.664222 0.468342 
-2.51752 0.673265 0.4684 -2.12844 0.659901 0.384264 -2.1361 0.670439 0.385998 
-2.13606 0.677843 0.386045 -2.13602 0.685248 0.386092 -2.13598 0.692652 0.386139 
-2.15243 0.707127 0.389803 -1.92266 -1.27128 0.3193 -2.80189 0.399926 0.518417 
-2.81724 0.413083 0.52177 -2.55376 0.465053 0.466287 -2.54051 0.471101 0.463523 
-2.61607 0.546095 0.480115 -2.16716 0.676503 0.385898 -2.1748 0.687217 0.387601 
-2.18355 0.698454 0.389541 -2.19999 0.713001 0.393137 -2.20873 0.724423 0.395078 
-2.1999 0.728378 0.393235 -1.91434 -1.26581 0.31174 -2.79919 0.399974 0.508508 
-2.52608 0.459155 0.452102 -2.52602 0.46825 0.45216 -2.65427 0.547274 0.479453 
-2.63994 0.553135 0.476514 -2.20696 0.678102 0.387328 -2.19045 0.679182 0.383901 
-2.19809 0.689972 0.385572 -2.24291 0.739861 0.395278 -2.23299 0.743501 0.39324 
-2.23295 0.751341 0.39329 -1.91265 -1.26578 0.305547 -2.8438 0.387739 0.50817 
-2.82728 0.395261 0.504852 -2.82722 0.405664 0.504918 -2.48857 0.450931 0.436094 
-2.62431 0.54015 0.464487 -2.63742 0.553179 0.467263 -2.1798 0.652821 0.374551 
-2.17099 0.65697 0.372782 -2.17095 0.664549 0.372831 -2.26815 0.767569 0.393459 
-2.64455 1.82105 0.478264 -2.60404 1.79678 0.469807 -2.63018 1.83796 0.475455 
-2.617 1.83638 0.472752 -2.5907 1.82345 0.467284 -2.63001 1.86672 0.475638 
-2.62996 1.87631 0.475699 -2.713 1.9581 0.493274 -2.88929 0.396237 0.50779 
-2.87278 0.403968 0.504542 -2.88917 0.417601 0.507927 -2.47416 0.448131 0.425029 
-2.6218 0.540195 0.455292 -2.64914 0.557014 0.460894 -2.18656 0.656288 0.368982 
-2.17775 0.660474 0.36725 -2.21166 0.681681 0.3742 -2.28465 0.775703 0.389528 
-2.07333 0.885077 0.348019 -2.06563 0.887954 0.346499 -2.06559 0.895093 0.346544 
-2.05789 0.89787 0.345023 -2.05785 0.904975 0.345069 -2.71263 1.56023 0.481139 
-2.71257 1.57017 0.481203 -2.71251 1.58012 0.481266 -2.72776 1.60091 0.484476 
-2.7277 1.61093 0.48454 -2.74186 1.63114 0.487527 -2.8161 1.8933 0.504366 
-2.74066 1.84273 0.488876 -2.68271 1.80572 0.476989 -2.80063 1.912 0.501408 
-2.81587 1.93491 0.504631 -2.76993 1.9074 0.495223 -2.66938 1.83413 0.474532 
-2.65512 1.83204 0.471662 -2.92043 0.40224 0.504195 -2.92037 0.413069 0.504264 
-2.48387 0.451015 0.418836 -2.18454 0.656324 0.361596 -2.20091 0.670484 0.364915 
-2.26394 0.767644 0.378019 -2.09451 0.876084 0.345562 -2.08682 0.879159 0.344075 
-2.07913 0.882168 0.342587 -2.07128 0.913799 0.341282 -2.07889 0.925399 0.342863 
-2.0865 0.937066 0.344444 -2.72513 1.60096 0.474814 -2.75346 1.63124 0.480604 
-2.76868 1.65236 0.483752 -2.79809 1.88104 0.491237 -2.72383 1.83129 0.476283 
-2.75214 1.8644 0.48209 -2.75209 1.87454 0.482155 -2.73784 1.873 0.479347 
-2.73779 1.88308 0.479411 -2.70827 1.86866 0.473508 -2.70821 1.87861 0.473571 
-2.62524 1.81887 0.456831 -2.95252 0.419418 0.500597 -2.96996 0.433623 0.504059 
-2.61679 0.540284 0.4369 -2.62985 0.553314 0.439511 -2.18253 0.65636 0.35421 
-2.19014 0.66705 0.355753 -2.2804 0.775779 0.373933 -2.11553 0.888607 0.34305 
-2.1002 0.887585 0.340094 -2.07724 0.882202 0.335636 -2.06176 0.909437 0.33286 
-2.08463 0.929861 0.337414 -2.78127 1.66338 0.476927 -2.84446 1.71941 0.489503 
-2.78104 1.70446 0.477189 -2.81151 1.73736 0.483297 -2.82781 1.75995 0.486602 
-2.72153 1.77125 0.466238 -2.74982 1.80362 0.471922 -2.79555 1.85008 0.481067 
-2.81075 1.87259 0.48416 -2.78017 1.85852 0.478171 -2.74959 1.84417 0.47218 
-2.74953 1.85431 0.472245 -2.93215 0.41632 0.486685 -2.94957 0.43045 0.490073 
-2.5512 0.47741 0.415349 -2.69619 0.561841 0.443299 -2.66883 0.564438 0.438163 
-2.18824 0.644021 0.348188 -2.19693 0.655103 0.349908 -2.24987 0.77139 0.360749 
-2.22255 0.767204 0.355569 -2.1213 0.877996 0.337314 -2.12126 0.885401 0.337361 
-2.12122 0.892805 0.337408 -2.74773 1.7023 0.461495 -2.76292 1.72388 0.464518 
-2.76286 1.73408 0.464583 -2.76269 1.76469 0.464778 -2.77787 1.78667 0.467804 
-2.73317 1.76226 0.459197 -2.70371 1.74938 0.45355 -1.91624 -1.26914 0.276777 
-2.92922 0.427276 0.476233 -2.6121 0.483186 0.418144 -2.63905 0.547544 0.423592 
-2.63899 0.557194 0.423654 -2.20436 0.526543 0.343246 -2.21304 0.537095 0.344925 
-2.19494 0.647413 0.342404 -2.17855 0.648776 0.33939 -2.23906 0.767579 0.351433 
-2.22049 0.76724 0.348005 -2.12706 0.867254 0.331512 -2.12702 0.874691 0.331559 
-2.11936 0.878031 0.33017 -2.13565 0.894286 0.333297 -2.40542 1.10116 0.384597 
-2.22896 1.00809 0.351355 -1.91451 -1.26263 0.270575 -2.9438 0.430552 0.468884 
-2.58344 0.477028 0.404181 -2.64958 0.551032 0.416668 -2.59614 0.546449 0.406987 
-2.21975 0.532079 0.338941 -2.22951 0.543055 0.340784 -2.20162 0.650805 0.336547 
-2.17654 0.648812 0.332004 -2.20976 0.755588 0.338791 -2.20101 0.759503 0.33724 
-2.10984 0.866597 0.321574 -2.10979 0.873968 0.321621 -2.12498 0.8896 0.324478 
-2.51725 1.18494 0.397467 -4.38881 2.5167 0.745138 -2.94097 0.419623 0.45822 
-2.94091 0.430604 0.45829 -2.60719 0.464213 0.39963 -2.60714 0.473744 0.399691 
-2.59402 0.480174 0.397423 -2.63397 0.547634 0.404972 -2.60671 0.549993 0.400177 
-2.25477 0.527801 0.337891 -2.25473 0.535802 0.337942 -2.25468 0.543803 0.337993 
-2.21698 0.657554 0.332177 -2.19084 0.655212 0.327545 -2.21641 0.759473 0.332827 
-2.20767 0.763426 0.331313 -2.0623 0.835074 0.306181 -2.09268 0.858503 0.311717 
-2.95549 0.422825 0.450651 -2.97283 0.437108 0.453747 -2.68623 0.482935 0.404641 
-2.64486 0.483178 0.397505 -2.59121 0.537063 0.388645 -2.25267 0.527838 0.330172 
-2.23281 0.76769 0.328508 -2.20561 0.763463 0.323785 -2.0235 0.815527 0.29275 
-2.03866 0.830667 0.295476 -2.51243 1.18502 0.379816 -2.9352 0.419726 0.437031 
-2.93514 0.430706 0.437101 -2.58909 0.470788 0.379081 -2.52677 0.529956 0.369012 
-2.27787 0.699051 0.328308 -2.2394 0.771576 0.322356 -2.23068 0.775647 0.320916 
-2.02929 0.812547 0.287249 -2.04334 0.827078 0.289724 -2.57181 1.22113 0.381666 
-2.63788 1.26944 0.393152 -2.92709 1.85819 0.446202 -2.91495 0.416625 0.423557 
-2.93225 0.430758 0.426507 -2.56133 0.521186 0.366151 -2.57321 0.533708 0.368197 
-2.58617 0.546626 0.370423 -2.25727 0.506471 0.316025 -2.22144 0.503789 0.310111 
-2.27574 0.699089 0.32047 -2.26553 0.776043 0.319352 -2.03494 0.830733 0.281819 
-2.94151 1.87132 0.43855 -2.63764 0.405663 0.368915 -2.61017 0.467381 0.364955 
-2.62387 0.538165 0.36767 -2.6509 0.55499 0.37213 -2.65085 0.564758 0.372193 
[...]
POINT_DATA 5670
SCALARS z_coord float
LOOKUP_TABLE default
0.386275 0.380178 0.606087 0.457387 0.620639 0.60926 0.609322 0.613209 0.617034 
0.617098 0.606162 0.606225 0.613525 0.376774 0.376815 0.59289 0.585918 0.450149 
0.450196 0.448269 0.438442 0.430242 0.610083 0.602599 0.606358 0.602725 0.606485 
0.606548 0.599217 0.599279 0.599342 0.599405 0.603167 0.59953 0.370632 0.376587 
0.587009 0.576553 0.440969 0.442958 0.443006 0.44111 0.42702 0.430965 0.538757 
0.589236 0.589424 0.58613 0.586193 0.589612 0.586317 0.58638 0.586442 0.586504 
0.586566 0.589988 0.590051 0.364489 0.370344 0.563859 0.567188 0.426172 0.437677 
0.433905 0.433999 0.420165 0.425962 0.439479 0.532819 0.532877 0.579632 0.58327 
0.583396 0.579883 0.359945 0.57806 0.554549 0.413556 0.42299 0.428671 0.533086 
0.527003 0.353775 0.571691 0.571755 0.548396 0.417601 0.40315 0.404777 0.406668 
0.414097 0.509632 0.512604 0.512661 0.587954 0.346142 0.56094 0.56914 0.572821 
0.408709 0.397876 0.399735 0.403407 0.408895 0.548832 0.542046 0.406957 0.403442 
0.332649 0.555169 0.525909 0.525972 0.403513 0.401562 0.398628 0.398675 0.330319 
0.804187 0.545132 0.498397 0.370708 0.372223 0.375701 0.370841 0.388078 0.388124 
0.322965 0.538619 0.535095 0.545697 0.488833 0.480501 0.489256 0.460591 0.468342 
0.4684 0.384264 0.385998 0.386045 0.386092 0.386139 0.389803 0.3193 0.518417 
0.52177 0.466287 0.463523 0.480115 0.385898 0.387601 0.389541 0.393137 0.395078 
0.393235 0.31174 0.508508 0.452102 0.45216 0.479453 0.476514 0.387328 0.383901 
0.385572 0.395278 0.39324 0.39329 0.305547 0.50817 0.504852 0.504918 0.436094 
0.464487 0.467263 0.374551 0.372782 0.372831 0.393459 0.478264 0.469807 0.475455 
0.472752 0.467284 0.475638 0.475699 0.493274 0.50779 0.504542 0.507927 0.425029 
0.455292 0.460894 0.368982 0.36725 0.3742 0.389528 0.348019 0.346499 0.346544 
0.345023 0.345069 0.481139 0.481203 0.481266 0.484476 0.48454 0.487527 0.504366 
0.488876 0.476989 0.501408 0.504631 0.495223 0.474532 0.471662 0.504195 0.504264 
0.418836 0.361596 0.364915 0.378019 0.345562 0.344075 0.342587 0.341282 0.342863 
0.344444 0.474814 0.480604 0.483752 0.491237 0.476283 0.48209 0.482155 0.479347 
0.479411 0.473508 0.473571 0.456831 0.500597 0.504059 0.4369 0.439511 0.35421 
0.355753 0.373933 0.34305 0.340094 0.335636 0.33286 0.337414 0.476927 0.489503 
0.477189 0.483297 0.486602 0.466238 0.471922 0.481067 0.48416 0.478171 0.47218 
0.472245 0.486685 0.490073 0.415349 0.443299 0.438163 0.348188 0.349908 0.360749 
0.355569 0.337314 0.337361 0.337408 0.461495 0.464518 0.464583 0.464778 0.467804 
0.459197 0.45355 0.276777 0.476233 0.418144 0.423592 0.423654 0.343246 0.344925 
0.342404 0.33939 0.351433 0.348005 0.331512 0.331559 0.33017 0.333297 0.384597 
0.351355 0.270575 0.468884 0.404181 0.416668 0.406987 0.338941 0.340784 0.336547 
0.332004 0.338791 0.33724 0.321574 0.321621 0.324478 0.397467 0.745138 0.45822 
0.45829 0.39963 0.399691 0.397423 0.404972 0.400177 0.337891 0.337942 0.337993 
0.332177 0.327545 0.332827 0.331313 0.306181 0.311717 0.450651 0.453747 0.404641 
0.397505 0.388645 0.330172 0.328508 0.323785 0.29275 0.295476 0.379816 0.437031 
0.437101 0.379081 0.369012 0.328308 0.322356 0.320916 0.287249 0.289724 0.381666 
0.393152 0.446202 0.423557 0.426507 0.366151 0.368197 0.370423 0.316025 0.310111 
0.32047 0.319352 0.281819 0.43855 0.368915 0.364955 0.36767 0.37213 0.372193 
0.303865 0.314539 0.314046 0.308492 0.316161 0.273746 0.273791 0.355359 0.367891 
0.425013 0.362145 0.366927 0.31447 0.302102 0.306639 0.309798 0.28007 0.278904 
0.280164 0.371403 0.360534 0.406205 0.348558 0.366098 0.361828 0.359557 0.306064 
0.307628 0.287092 0.298608 0.294294 0.295857 0.306545 0.269431 0.270658 0.364885 
0.348014 0.172489 0.332893 0.333255 0.360858 0.356382 0.354338 0.290473 0.284976 
0.280947 0.276915 0.283711 0.283761 0.282505 0.256685 0.368388 0.321865 0.350949 
0.270644 0.268155 0.273442 0.163419 0.312899 0.309446 0.309506 0.338898 0.264349 
0.263166 0.265837 0.250598 0.33793 0.159367 0.30559 0.300525 0.328923 0.335221 
0.335287 0.328268 0.323104 0.287827 0.287308 0.321207 0.314652 0.278167 0.278228 
0.309016 0.310969 0.281345 0.279754 0.279813 0.284691 0.304871 0.270524 0.298775 
0.300663 0.240154 0.242687 0.303837 0.303903 0.30397 0.306036 0.259825 0.288601 
0.292308 0.244408 0.248494 0.254329 0.309764 0.316144 0.320723 0.318477 0.314298 
0.253641 0.258291 0.271351 0.278427 0.287685 0.246844 0.245566 0.244224 0.244282 
0.32085 0.318565 0.309817 0.250197 0.25328 0.26307 0.273488 0.237914 0.236685 
0.23534 0.238091 0.236861 0.148809 0.23659 0.240781 0.243746 0.243809 0.243873 
0.253097 0.230457 0.144283 0.244491 0.227784 0.229249 0.13809 0.240503 0.219877 
0.225108 0.13244 0.222915 0.22866 0.228727 0.213037 0.164322 0.167272 0.16802 
0.171612 0.172364 0.174021 0.125704 0.215648 0.217115 0.218489 0.204743 0.155906 
0.154615 0.15718 0.161351 0.162166 0.119999 0.205476 0.208116 0.208184 0.145163 
0.142752 0.153515 0.232384 0.234026 0.235761 0.114203 0.139457 0.138898 0.141962 
0.218264 0.218336 0.219899 0.107599 0.187573 0.136482 0.134812 0.13848 0.204701 
0.206186 0.207588 0.101378 0.17966 0.12937 0.128877 0.202201 0.171464 0.120735 
0.120273 0.129173 0.113243 0.113289 0.115419 0.116426 0.0791786 0.0792088 0.079239 
0.0790594 0.0788796 0.0791197 0.0791498 0.0789697 0.0787895 0.078609 0.0784986 0.0783178 
0.0783475 0.0781664 0.158278 0.15419 0.150282 0.13584 0.135902 0.135155 0.106259 
0.105861 0.108787 0.109282 0.0742165 0.0744424 0.0744725 0.0745026 0.0743365 0.073974 
0.0742002 0.0740337 0.0739325 0.0737656 0.0735986 0.0734314 0.073264 0.0730963 0.145168 
0.143372 0.140667 0.126222 0.125721 0.125092 0.0988633 0.0989093 0.1067 0.128406 
0.0922455 0.0926717 0.0930984 0.101458 0.10792 0.107974 0.117108 0.118648 0.117245 
0.119548 0.122711 0.124449 0.0852618 0.085656 0.0850058 0.0987872 0.099802 0.098894 
0.0962119 0.0944896 0.0941345 0.105399 0.106797 0.106865 0.108266 0.112551 0.114904 
0.0951258 0.0956707 0.078278 0.0918813 0.0919356 0.090702 0.0898808 0.0886122 0.0911998 
0.0923365 0.103693 0.105153 0.105228 0.106036 0.107578 0.106921 0.105529 0.104907 
0.105679 0.0862454 0.0876511 0.0886226 0.0891591 0.0892199 0.0892807 0.0893414 0.090397 
0.0919322 0.0915165 0.0900631 0.0891663 0.0887472 0.087448 0.0875071 0.0875661 0.0848678 
0.085337 0.0826168 0.0800583 0.0787292 0.080981 0.0819556 0.0937015 0.0944213 0.0951422 
0.0958643 0.0959412 0.0953712 0.0948 0.0948757 0.0949515 0.0963257 0.0793608 0.0798417 
0.0807793 0.0812622 0.0809023 0.0805067 0.0810254 0.0815097 0.0815716 0.0816334 0.0808124 
0.0800253 0.0796611 0.0793317 0.0789661 0.0786354 0.0786944 0.0783625 0.0650194 0.0750699 
0.0761909 0.0762457 0.0693048 0.0606066 0.0611211 0.0614021 0.0614491 0.0612614 0.0610733 
0.0608848 0.0611665 0.061213 0.0612596 0.0610702 0.0608804 0.0687463 0.0305853 0.0256586 
0.0220126 0.0207986 0.0157299 0.00805427 0.00810664 0.00816389 0.00822033 0.00826605 0.00831177 
0.00836198 0.00840752 0.00846066 0.00850238 0.00854041 0.00859602 0.00892647 0.0089715 0.0090202 
0.00906055 0.0102461 0.0102821 0.0103184 0.0103822 0.0106564 -0.00683333 -0.00711514 -0.0070479 
-0.0103557 -0.0102599 0.00391852 0.00398345 0.00437291 0.00443147 0.00559761 0.00564407 -0.0174564 
-0.0172218 -0.0171546 -0.0245315 -0.0222819 -0.0206022 -0.00305898 -0.00253697 -0.00249396 0.000600891 
0.000601994 -0.0280104 -0.0282068 -0.0276267 -0.00998084 -0.00443579 -0.0369061 -0.0377713 -0.0389719 
-0.0472771 -0.0176914 -0.0174008 -0.0464178 -0.0480125 -0.0483055 -0.0498312 -0.0604036 -0.0634453 
-0.0558641 -0.0580641 -0.0585687 -0.057886 -0.0575417 -0.0561977 -0.0572764 -0.0585435 -0.0715374 
-0.0728377 -0.0756337 -0.066931 -0.0681364 -0.0680511 -0.0710129 -0.0876671 -0.0851376 -0.0850523 
-0.0874046 -0.0741136 -0.0766912 -0.0780168 -0.0821657 -0.111488 -0.107012 -0.103838 -0.10082 
-0.0825451 -0.0287891 -0.0881812 -0.092125 -0.0941696 -0.119035 -0.127493 -0.132778 -0.0940079 
-0.0329122 -0.102716 -0.106586 -0.109042 -0.131472 -0.139284 -0.146471 -0.109832 -0.0379462 
-0.114941 -0.145065 -0.149178 -0.0425104 -0.0844643 -0.129424 -0.10733 -0.163233 -0.161617 
-0.0475343 -0.047127 -0.0915028 -0.141516 -0.11664 -0.0511833 -0.0981529 -0.152568 -0.137573 
-0.126747 -0.207009 -0.0555601 -0.163619 -0.145619 -0.136112 -0.224316 -0.060084 -0.111907 
-0.111863 -0.154533 -0.145477 -0.239522 -0.0643648 -0.0640463 -0.0635845 -0.118584 -0.180166 
-0.160114 -0.154842 -0.252288 -0.257427 -0.0687437 -0.0684835 -0.0684527 -0.125262 -0.125218 
-0.190907 -0.170877 -0.165308 -0.0726196 -0.0721034 -0.0718303 -0.131939 -0.131895 -0.207825 
-0.178188 -0.172501 -0.251595 -0.0767013 -0.0759015 -0.075615 -0.0753287 -0.0752988 -0.074842 
-0.138573 -0.217178 -0.186566 -0.182937 -0.265069 -0.0812992 -0.0804583 -0.0801581 -0.0795881 
-0.0795583 -0.0793485 -0.14667 -0.229928 -0.18754 -0.0833176 -0.0830045 -0.0826915 -0.0820954 
-0.0808387 -0.15407 -0.24098 -0.199154 -0.294674 -0.087202 -0.0871726 -0.086846 -0.0868167 
-0.0854015 -0.0840861 -0.159295 -0.160055 -0.255814 -0.208404 -0.300044 -0.0884292 -0.0878831 
-0.0875442 -0.166 -0.166792 -0.275363 -0.227876 -0.219174 -0.310501 -0.0918222 -0.0914698 
-0.0917656 -0.173574 -0.174273 -0.286912 -0.237538 -0.228485 -0.323627 -0.320759 -0.0949738 
-0.182884 -0.181938 -0.296223 -0.307962 -0.303013 -0.295996 -0.243924 -0.236218 -0.320131 
-0.328247 -0.328162 -0.330969 -0.190511 -0.187802 -0.314736 -0.307459 -0.258499 -0.328166 
-0.336495 -0.333525 -0.327191 -0.335496 -0.102663 -0.102027 -0.198332 -0.19374 -0.32646 
-0.321409 -0.269917 -0.332253 -0.337638 -0.342332 -0.345104 -0.206216 -0.340893 -0.330385 
-0.283479 -0.349747 -0.33284 -0.343378 -0.351762 -0.21725 -0.209123 -0.247595 -0.344584 
-0.344508 -0.344432 -0.35609 -0.339196 -0.352597 -0.361131 -0.213906 -0.21477 -0.243035 
-0.254649 -0.257462 -0.258765 -0.263084 -0.264536 -0.262974 -0.36163 -0.361552 -0.367257 
-0.307335 -0.362258 -0.359306 -0.350659 -0.361633 -0.420607 -0.420516 -0.424292 -0.357964 
-0.363172 -0.326417 -0.335989 -0.343572 -0.357105 -0.221579 -0.221534 -0.244399 -0.246839 
-0.249432 -0.25187 -0.255861 -0.258451 -0.262595 -0.265494 -0.271342 -0.274238 -0.272786 
-0.382146 -0.389431 -0.362122 -0.379371 -0.442306 -0.547869 -0.554099 -0.37509 -0.366226 
-0.355023 -0.441604 -0.437416 -0.228343 -0.228299 -0.245817 -0.271979 -0.274964 -0.279547 
-0.391069 -0.392082 -0.373585 -0.460536 -0.585209 -0.455601 -0.455508 -0.236264 -0.235063 
-0.281611 -0.287806 -0.328284 -0.385142 -0.385067 -0.400851 -0.400773 -0.388035 -0.474813 
-0.47472 -0.557218 -0.575917 -0.589124 -0.441755 -0.478609 -0.24306 -0.241827 -0.283441 
-0.297755 -0.338005 -0.387786 -0.415998 -0.415919 -0.399585 -0.479924 -0.549535 -0.567335 
-0.59287 -0.463259 -0.497603 -0.25949 -0.252122 -0.249812 -0.26366 -0.304269 -0.343194 
-0.352194 -0.407969 -0.410549 -0.421332 -0.421254 -0.414296 -0.493855 -0.489278 -0.5714 
-0.517287 -0.522125 -0.156978 -0.155968 -0.155447 -0.154437 -0.151631 -0.147848 -0.26779 
-0.256653 -0.255356 -0.314309 -0.357384 -0.419345 -0.418744 -0.410626 -0.429181 -0.503085 
-0.502994 -0.593538 -0.627003 -0.169957 -0.148165 -0.148137 -0.148109 -0.14808 -0.148052 
-0.147521 -0.273585 -0.263449 -0.26212 -0.27037 -0.324258 -0.327856 -0.329809 -0.371884 
-0.430721 -0.433474 -0.431505 -0.437569 -0.50295 -0.502862 -0.590905 -0.616354 -0.1524 
-0.151339 -0.151311 -0.150422 -0.281949 -0.271562 -0.268885 -0.338352 -0.441496 -0.442968 
-0.449359 -0.442437 -0.449205 -0.511721 -0.152432 -0.290377 -0.280894 -0.275649 -0.339168 
-0.410372 -0.449529 -0.453976 -0.450391 -0.457333 -0.525049 -0.520351 -0.294728 -0.286401 
-0.351148 -0.731977 -0.417818 -0.467863 -0.458882 -0.465817 -0.465439 -0.461767 -0.53829 
-0.542927 -0.530008 -0.539309 -0.293257 -0.344069 -0.740988 -0.724176 -0.692834 -0.664054 
-0.425322 -0.461644 -0.394076 -0.499902 -0.476902 -0.476826 -0.566258 -0.576618 -0.300113 
-0.749798 -0.72496 -0.701536 -0.672894 -0.432499 -0.494959 -0.472695 -0.398579 -0.495905 
-0.492058 -0.5747 -0.566637 -0.561621 -0.551878 -0.547064 -0.551706 -0.542166 -0.542081 
-0.561096 -0.336799 -0.308444 -0.733529 -0.702592 -0.688309 -0.688206 -0.522588 -0.502706 
-0.498751 -0.514033 -0.518036 -0.490958 -0.487213 -0.480004 -0.476466 -0.469596 -0.410591 
-0.771761 -0.313824 -0.703825 -0.689441 -0.68934 -0.68924 -0.696277 -0.689039 -0.675506 
-0.675408 -0.668595 -0.67521 -0.465179 -0.522331 -0.565892 -0.570401 -0.509751 -0.498269 
-0.494652 -0.483808 -0.433614 -0.425221 -0.417247 -0.31936 -0.677607 -0.664636 -0.664541 
-0.664446 -0.664352 -0.664257 -0.657944 -0.65785 -0.663972 -0.657662 -0.492355 -0.546558 
-0.559707 -0.5688 -0.521127 -0.513233 -0.513159 -0.501652 -0.497961 -0.497889 -0.494412 
-0.539323 -0.547733 -0.329108 -0.659315 -0.659223 -0.659131 -0.653132 -0.658946 -0.652949 
-0.485938 -0.503096 -0.549823 -0.562823 -0.558385 -0.545066 -0.540852 -0.534519 -0.346776 
-0.496318 -0.513837 -0.557317 -0.584167 -0.579414 -0.536026 -0.548178 -0.554395 -0.354382 
-0.668233 -0.656298 -0.650516 -0.656121 -0.650341 -0.644561 -0.639011 -0.638925 -0.627915 
-0.517377 -0.568954 -0.3614 -0.351348 -0.635456 -0.619818 -0.554871 -0.563138 -0.562765 
-0.554356 -0.363949 -0.377497 -0.366765 -0.584233 -0.55773 -0.557658 -0.569735 -0.524919 
-0.377308 -0.58677 -0.573911 -0.561538 -0.538316 -0.520164 -0.516722 -0.52686 -0.552804 
-0.56068 -0.54881 -0.541036 -0.544819 -0.544749 -0.540829 -0.497711 -0.384452 -0.526761 
-0.530134 -0.533753 -0.522863 -0.533352 -0.544083 -0.513792 -0.540238 -0.540171 -0.540105 
-0.481419 -0.487103 -0.534164 -0.5204 -0.517099 -0.546575 -0.522057 -0.487307 -0.495889 
-0.498878 -0.495769 -0.492914 -0.492855 -0.495589 -0.486894 -0.489628 -0.492616 -0.492556 
-0.486658 -0.486599 -0.495168 -0.504243 -0.50748 -0.520103 -0.556614 -0.560179 -0.505035 
-0.517652 -0.51759 -0.517529 -0.511002 -0.50189 -0.498728 -0.498669 -0.507657 -0.507596 
-0.507536 -0.501532 -0.504315 -0.507355 -0.516852 -0.547009 -0.565539 -0.419163 -0.548383 
-0.528008 -0.558173 -0.550862 -0.54731 -0.530609 -0.564013 -0.5604 -0.543141 -0.54308 
-0.661454 -0.566268 -0.55233 -0.559206 -0.572362 -0.5723 -0.592426 -0.484142 -0.594455 
-0.606036 -0.603934 -0.611559 -0.62536 -0.629199 -0.633037 -0.518392 -0.62283 -0.638856 
-0.613007 -0.609235 -0.612885 -0.665063 -0.503261 -0.503213 -0.500615 -0.491006 -0.505568 
-0.515395 -0.525858 -0.542162 -0.503413 -0.503365 -0.503317 -0.501006 -0.503222 -0.601521 
-0.604962 -0.601405 -0.597848 -0.59779 -0.601231 -0.597675 -0.510657 -0.503251 -0.579409 
-0.595796 -0.592515 -0.592459 -0.585634 -0.585578 -0.589067 -0.589011 -0.588955 -0.588899 
-0.503878 -0.503831 -0.503784 -0.506067 -0.517949 -0.587754 -0.597835 -0.597779 -0.597723 
-0.590803 -0.587479 -0.597555 -0.597499 -0.60071 -0.600654 -0.471801 -0.602174 -0.602118 
-0.59875 -0.598695 -0.601951 -0.608848 -0.612103 -0.619329 -0.626223 -0.622524 -0.619157 
-0.626049 -0.648312 -0.490539 -0.492547 -0.499345 -0.503747 -0.607283 -0.661362 -0.66935 
-0.490847 -0.490803 -0.490759 -0.495224 -0.574839 -0.605513 -0.497437 -0.495285 -0.493134 
-0.490982 -0.495155 -0.573797 -0.582507 -0.511366 -0.517869 -0.513194 -0.515643 -0.515598 
-0.513061 -0.564557 -0.578357 -0.575417 -0.649406 -0.642022 -0.506853 -0.515614 -0.508715 
-0.506508 -0.506464 -0.502093 -0.50205 -0.504171 -0.574461 -0.585922 -0.591985 -0.589058 
-0.635843 -0.61883 -0.509045 -0.509003 -0.513216 -0.515365 -0.58504 -0.623736 -0.591835 
-0.565973 -0.559554 -0.522136 -0.517596 -0.517553 -0.517511 -0.564114 -0.564066 -0.568902 
-0.563358 -0.553053 -0.56081 -0.578711 -0.578663 -0.576019 -0.570408 -0.57036 -0.570313 
-0.554666 -0.570365 -0.570318 -0.569945 -0.575158 -0.583374 -0.605692 -0.572039 -0.571808 
-0.577086 -0.571716 -0.583845 -0.581718 -0.576282 -0.576236 -0.576098 -0.576052 -0.576006 
-0.5883 -0.59363 -0.593583 -0.590847 -0.588112 -0.585378 -0.588687 -0.594095 -0.591321 
-0.583095 -0.592364 -0.589598 -0.586833 -0.58135 -0.581304 -0.588439 -0.588393 -0.591098 
-0.591052 -0.591006 -0.574343 -0.57657 -0.578796 -0.577941 -0.586311 -0.586272 -0.583922 
-0.548986 -0.555006 -0.553239 -0.551509 -0.557512 -0.559536 -0.554033 -0.555972 -0.54035 
-0.546525 -0.548568 -0.550843 -0.517995 -0.539017 -0.541164 -0.543535 -0.545649 -0.53151 
-0.530112 -0.532268 -0.520192 -0.515065 -0.517673 -0.520232 -0.526355 -0.513992 -0.522738 
-0.528843 -0.520218 -0.529815 -0.528276 -0.532566 -0.530966 -0.527154 -0.524507 -0.527132 
-0.529864 -0.532278 -0.5273 -0.529883 -0.528342 -0.534949 -0.51899 -0.525788 -0.528462 
-0.516052 -0.514834 -0.517542 -0.520339 -0.514639 -0.513473 -0.516265 -0.519156 -0.524909 
-0.523445 -0.521814 -0.520463 -0.527933 -0.526396 -0.524695 -0.523278 -0.525014 -0.532768 
-0.530957 -0.533823 -0.529946 -0.537913 -0.535869 -0.538241 -0.541095 -0.543697 -0.536364 
-0.539573 -0.510589 -0.517268 -0.509001 -0.512574 -0.512297 -0.520515 -0.593837 -0.531361 
-0.54293 -0.529538 -0.524842 -0.511294 -0.504269 -0.512748 -0.516953 -0.498589 -0.492345 
-0.51886 -0.510894 -0.498185 -0.510787 -0.509097 -0.501997 -0.514899 -0.502868 -0.483999 
-0.489938 -0.472294 -0.4772 -0.50016 -0.487267 -0.486459 -0.49835 -0.496578 -0.500736 
-0.566009 -0.56414 -0.56468 -0.566399 -0.571064 -0.576645 -0.570611 -0.564958 -0.57344 
-0.575126 -0.569254 -0.56006 -0.568147 -0.566066 -0.557368 -0.559389 -0.565433 -0.563351 
-0.561387 -0.563031 -0.557379 -0.55601 -0.557926 -0.559812 -0.557799 -0.555916 -0.557934 
-0.552372 -0.572721 -0.56542 -0.558545 -0.556372 -0.554433 -0.556405 -0.566092 -0.559195 
-0.55691 -0.559062 -0.552755 -0.554855 -0.524415 -0.528451 -0.538342 -0.535819 -0.522096 
-0.574409 -0.571757 -0.568973 -0.561988 -0.523933 -0.516779 -0.525449 -0.53386 -0.536936 
-0.539883 -0.547856 -0.560842 -0.568664 -0.570989 -0.573073 -0.570276 -0.584551 -0.583042 
-0.584008 -0.584904 -0.583628 -0.58437 -0.585043 -0.583491 -0.584552 -0.516819 -0.520263 
-0.528901 -0.532114 -0.540292 -0.548407 -0.551123 -0.564108 -0.577093 -0.574171 -0.571202 
-0.573325 -0.579222 -0.571989 -0.566622 -0.569446 -0.574343 -0.577115 -0.578245 -0.580935 
-0.583591 -0.586039 -0.578463 -0.571186 -0.5908 -0.580585 -0.575803 -0.578953 -0.575609 
-0.576686 -0.579742 -0.579549 -0.570817 -0.571763 -0.572866 -0.57797 -0.581022 -0.582954 
-0.574212 -0.588884 -0.576364 -0.569047 -0.572128 -0.576014 -0.574888 -0.588259 -0.575683 
-0.572339 -0.571382 -0.581133 -0.577741 -0.587131 -0.578986 -0.586266 -0.578884 -0.584009 
-0.576296 -0.585156 -0.576587 -0.573088 -0.580617 -0.570256 -0.572371 -0.577769 -0.567926 
-0.573659 -0.57377 -0.57664 -0.5876 -0.588504 -0.570968 -0.573804 -0.583385 -0.574374 
-0.580645 -0.588326 -0.584711 -0.575521 -0.577797 -0.570566 -0.565637 -0.574397 -0.568067 
-0.57436 -0.570944 -0.579523 -0.57091 -0.579667 -0.574245 -0.578963 -0.573759 -0.594266 
-0.590334 -0.580262 -0.581824 -0.578916 -0.595636 -0.58723 -0.579083 -0.581258 -0.574287 
-0.576392 -0.576671 -0.566169 -0.57569 -0.576711 -0.580294 -0.574476 -0.574426 -0.573189 
-0.561749 -0.575122 -0.573755 -0.578997 -0.565861 -0.582927 -0.579583 -0.57842 -0.57024 
-0.553628 -0.556807 -0.57121 -0.576331 -0.579559 -0.571356 -0.551138 -0.554515 -0.572498 
-0.569512 -0.577307 -0.580167 -0.548865 -0.552137 -0.561573 -0.583413 -0.585994 -0.571773 
-0.572814 -0.578458 -0.583031 -0.587347 -0.589845 -0.598599 -0.627365 -0.591116 -0.584833 
-0.593697 -0.602411 -0.631257 -0.583516 -0.575754 -0.582469 -0.587056 -0.606222 -0.62817 
-0.643481 -0.651677 -0.579061 -0.580195 -0.580727 -0.610034 -0.625185 -0.640337 -0.655489 
-0.575832 -0.584777 -0.580137 -0.646426 -0.593998 -0.585702 -0.58421 -0.650084 -0.651154 
-0.658744 -0.58882 -0.58499 -0.567237 -0.634051 -0.641606 -0.649095 -0.585625 -0.582243 
-0.566451 -0.639941 -0.635049 -0.630512 -0.578971 -0.565656 -0.631081 -0.632326 -0.574152 
-0.564852 -0.581547 -0.570211 -0.572174 -0.578747 -0.569403 -0.561897 -0.565188 -0.582385 
-0.581361 -0.577967 -0.580783 -0.573881 -0.566521 -0.559475 -0.558532 -0.578907 -0.581862 
-0.584224 -0.55219 -0.566431 -0.567627 -0.570355 -0.591005 -0.584723 -0.554921 -0.602063 