# vtk DataFile Version 4.2
vtk output
ASCII
DATASET POLYDATA
POINTS 9443 float
-3.36845 -1.50597 0.665172 -3.34346 -1.49482 0.64883 -3.3 -1.46091 0.639473 
-4.47334 -0.852609 0.897209 -4.55973 -0.854215 0.916357 -4.51466 -0.827893 0.906703 
-4.60211 -0.828805 0.926094 -4.64685 -0.820499 0.93613 -4.42628 -0.84379 0.871678 
-4.4677 -0.836094 0.880806 -4.51021 -0.828272 0.890175 -4.64355 -0.838532 0.919109 
-4.68934 -0.830259 0.929199 -3.31239 -1.48418 0.609895 -4.41947 -0.810739 0.855397 
-4.59302 -0.82958 0.892316 -4.68469 -0.830655 0.91193 -4.59045 -0.794685 0.892206 
-4.67873 -0.813212 0.894605 -4.67742 -0.795372 0.894549 -4.82365 -0.805133 0.925165 
-4.62716 -0.804424 0.867768 -4.67277 -0.795768 0.87728 -4.7686 -0.796129 0.897041 
-4.7161 -0.805367 0.86961 -4.81403 -0.805953 0.88942 -4.7114 -0.805768 0.852144 
-4.86047 -0.815996 0.881605 -4.85423 -0.79773 0.863463 -4.7408 -0.743402 0.808535 
-4.84037 -0.742517 0.82712 -4.788 -0.715276 0.817639 -4.68801 -0.680669 0.79935 
-4.78529 -0.678349 0.817522 -4.6357 -0.673266 0.773274 -4.63439 -0.655426 0.773217 
-4.83001 -0.668209 0.808802 -3.52884 -2.16071 0.544299 -4.58461 -0.666035 0.747786 
-4.62974 -0.655822 0.755949 -4.77431 -0.660705 0.781719 -4.77295 -0.642242 0.781661 
-4.8224 -0.631262 0.790602 -4.76814 -0.642652 0.763789 -4.81753 -0.631677 0.772519 
-3.40594 -1.83825 0.491816 -3.38223 -1.81182 0.488105 -3.35966 -1.78628 0.484578 
-3.35878 -1.77425 0.48454 -3.35789 -1.76222 0.484502 -3.37866 -1.76335 0.487952 
-3.35612 -1.73817 0.484427 -3.35524 -1.72614 0.484389 -3.35436 -1.71411 0.484351 
-3.35347 -1.70208 0.484313 -3.33097 -1.67735 0.480789 -4.8023 -0.557784 0.736118 
-3.40276 -1.83853 0.479994 -3.37907 -1.81209 0.476374 -3.35653 -1.78655 0.472934 
-3.334 -1.76119 0.469495 -3.33312 -1.74925 0.469457 -3.33225 -1.73731 0.46942 
-3.35299 -1.73843 0.472783 -3.33049 -1.71343 0.469345 -3.32961 -1.70149 0.469307 
-3.32873 -1.68955 0.46927 -3.30626 -1.66491 0.465832 -4.69482 -0.508573 0.701788 
-3.45061 -1.94185 0.475386 -3.44969 -1.92945 0.475347 -3.44878 -1.91704 0.475308 
-3.42507 -1.89004 0.471778 -3.42417 -1.87773 0.471739 -3.40048 -1.85101 0.46821 
-3.32387 -1.66594 0.457638 -3.32299 -1.654 0.4576 -3.34367 -1.6545 0.460874 
-3.36433 -1.65482 0.464148 -3.36344 -1.6427 0.46411 -3.40788 -1.6562 0.471042 
-3.45343 -1.66995 0.478148 -3.4763 -1.6707 0.481767 -3.52406 -1.68503 0.489219 
-3.54802 -1.6859 0.493011 -3.5731 -1.68718 0.496977 -4.5947 -0.497245 0.669099 
-4.59339 -0.479405 0.669043 -3.44737 -1.94212 0.463381 -3.44646 -1.92972 0.463342 
-3.42277 -1.90262 0.459903 -3.31094 -1.85529 0.432019 -3.18631 -1.7522 0.41408 
-4.47118 -0.75756 0.615316 -3.10915 -1.71495 0.392523 -4.5106 -0.766375 0.604977 
-4.46472 -0.792844 0.582012 -4.42066 -0.767177 0.575927 -4.46218 -0.758326 0.581903 
-4.46276 -0.827744 0.565414 -4.46149 -0.810486 0.56536 -4.50407 -0.802044 0.571308 
-4.45895 -0.775968 0.565251 -4.50209 -0.837327 0.554529 -4.45699 -0.810869 0.548653 
-4.49953 -0.802432 0.554419 -4.49824 -0.784984 0.554364 -4.66066 -1.20952 0.556478 
-4.56576 -1.16469 0.544418 -4.56447 -1.14705 0.544362 -4.56317 -1.12941 0.544307 
-4.60806 -1.12441 0.550181 -4.56058 -1.09413 0.544196 -4.55928 -1.07649 0.54414 
-4.51294 -1.04709 0.538298 -4.51165 -1.02964 0.538243 -4.51037 -1.01219 0.538188 
-4.50909 -0.994743 0.538133 -4.50781 -0.977295 0.538078 -4.50652 -0.959848 0.538023 
-4.49755 -0.837714 0.537639 -4.4525 -0.811252 0.531947 -4.70301 -1.20575 0.544969 
-4.60604 -1.16048 0.533024 -4.51352 -1.11726 0.521628 -4.55728 -1.11216 0.527174 
-4.55598 -1.09452 0.527119 -4.50967 -1.06492 0.521464 -4.46449 -1.036 0.515946 
-4.46322 -1.01874 0.515892 -4.46196 -1.00148 0.515838 -4.50454 -0.99513 0.521244 
-4.45942 -0.966963 0.515729 -4.45815 -0.949704 0.515675 -4.49615 -0.943175 0.50419 
-4.49487 -0.925727 0.504135 -4.53841 -0.918497 0.509487 -4.4923 -0.890832 0.504025 
-4.53582 -0.883214 0.509376 -4.53452 -0.865573 0.50932 -4.53063 -0.812649 0.509154 
-4.52934 -0.795008 0.509098 -4.57385 -0.786245 0.514576 -4.57254 -0.768405 0.51452 
-4.48076 -0.733803 0.503531 -4.43589 -0.708466 0.498208 -4.43462 -0.691208 0.498154 
-4.47691 -0.68146 0.503367 -4.52026 -0.671518 0.50871 -4.47434 -0.646565 0.503257 
-4.47306 -0.629117 0.503202 -4.51307 -0.636627 0.491522 -4.46723 -0.612057 0.486258 
-4.42251 -0.588039 0.481122 -4.42124 -0.57078 0.481067 -4.46338 -0.559714 0.486093 
-4.37822 -0.61616 0.459747 -4.41928 -0.605681 0.46447 -4.55144 -0.60864 0.479477 
-4.55012 -0.5908 0.479421 -4.59543 -0.579622 0.484629 -3.7627 -0.708551 0.308039 
-3.85471 -0.713996 0.316183 -3.85362 -0.699157 0.316136 -3.88389 -0.690746 0.31885 
-3.91631 -0.682495 0.321754 -4.08812 -0.701332 0.336932 -3.98107 -0.665115 0.327558 
-3.91297 -0.637126 0.321611 -4.08462 -0.653694 0.336782 -4.04675 -0.631241 0.333499 
-4.15566 -0.634763 0.343148 -4.23214 -0.631803 0.349943 -4.23093 -0.615262 0.349891 
-4.35153 -0.618435 0.360579 -4.35027 -0.60136 0.360525 -4.26606 -0.571581 0.353155 
-4.26483 -0.55487 0.353103 -4.26361 -0.53816 0.35305 -4.38723 -0.538945 0.364014 
-4.30203 -0.51029 0.356553 -4.14375 -0.472759 0.342639 -4.14256 -0.456559 0.342588 
-4.21877 -0.449857 0.34937 -4.21755 -0.433317 0.349318 -4.21633 -0.416776 0.349266 
-4.29458 -0.408949 0.356234 -3.72974 -0.702501 0.29162 -3.81949 -0.70762 0.299189 
-3.84975 -0.699486 0.301771 -3.87999 -0.691079 0.304353 -4.04844 -0.710183 0.318531 
-3.97819 -0.680874 0.312683 -3.84539 -0.640127 0.301585 -3.97592 -0.650042 0.312586 
-4.04381 -0.647309 0.318333 -4.11598 -0.644745 0.324439 -4.07815 -0.622289 0.321311 
-4.22783 -0.63217 0.333932 -4.26539 -0.622084 0.337137 -4.18556 -0.592631 0.33048 
-4.26294 -0.588662 0.337032 -4.22297 -0.566008 0.333723 -4.26048 -0.555241 0.336927 
-4.42701 -0.562813 0.350978 -4.38273 -0.539328 0.347308 -4.29763 -0.510665 0.340203 
-4.25557 -0.488399 0.336716 -4.25434 -0.471688 0.336664 -4.37766 -0.470294 0.34709 
-4.37639 -0.453035 0.347036 -4.29142 -0.426215 0.339938 -4.37385 -0.418518 0.346927 
-4.20528 -0.384429 0.31714 -4.2833 -0.375919 0.323429 -4.40836 -0.371276 0.333485 
-4.53925 -0.330225 0.34411 -4.49195 -0.308532 0.340372 -3.85511 -0.878221 0.273602 
-3.8854 -0.871464 0.275923 -3.91783 -0.864981 0.278407 -3.88319 -0.841511 0.275829 
-3.98757 -0.956114 0.150654 -4.01778 -0.965865 0.136736 -4.1602 -1.0065 0.125821 
-4.09506 -0.965963 0.0305282 -4.12794 -0.976309 0.0148233 -4.05061 -0.956978 -0.000658093 
-4.04643 -0.957334 -0.0161846 -4.04225 -0.95769 -0.031711 -4.23616 0.0386535 -0.0387858 
-3.93255 -0.929473 -0.0453428 -4.23167 0.0382704 -0.0554922 -4.22362 -1.00985 -0.0669976 
-4.14663 0.0373351 -0.0702921 -4.48909 0.0581559 -0.0784893 -4.21922 -1.01023 -0.0833473 
-4.3062 0.038069 -0.0912552 -4.29107 -1.01604 -0.119006 -4.28657 -1.01642 -0.135712 
-4.20037 -0.994838 -0.148799 -4.12164 -0.957456 -0.145417 -4.15621 -0.984507 -0.163212 
-4.15186 -0.984878 -0.179388 -4.11302 -0.958191 -0.17744 -4.1475 -0.985249 -0.195564 
-4.14315 -0.98562 -0.21174 -4.1044 -0.958925 -0.209463 -4.10131 -0.975833 -0.225422 
-4.10009 -0.959292 -0.225474 -4.097 -0.9762 -0.241433 -4.09578 -0.959659 -0.241485 
-4.13009 -0.986733 -0.260267 -4.16832 -0.980573 -0.2633 -4.12573 -0.987104 -0.276443 
-4.16392 -0.980948 -0.27965 -4.04572 -0.966846 -0.286227 -4.12015 -0.970764 -0.292672 
-4.03905 -0.934478 -0.302172 -4.03784 -0.918112 -0.302224 -4.03478 -0.934841 -0.318014 
-4.03358 -0.918475 -0.318066 -4.03052 -0.935204 -0.333856 -3.99321 -0.909433 -0.330361 
-4.06439 -0.945689 -0.353616 -4.02505 -0.919202 -0.34975 -4.06008 -0.946057 -0.369627 
-3.98476 -0.910153 -0.361725 -4.05577 -0.946424 -0.385638 -4.01652 -0.919929 -0.381434 
-4.05147 -0.946791 -0.40165 -4.01226 -0.920292 -0.397276 -4.08409 -0.957021 -0.422131 
-4.04285 -0.947525 -0.433672 -3.96788 -0.911591 -0.424453 -4.00067 -0.937748 -0.44475 
-3.99947 -0.921382 -0.444802 -4.12743 -0.144278 -0.489316 -4.29296 -0.133338 -0.512385 
-4.37894 -0.155599 -0.542538 -4.42375 -0.138891 -0.549184 -4.16752 -0.268898 -0.528255 
-4.02494 -0.998983 -0.513572 -4.02373 -0.982442 -0.513624 -4.05919 -0.975958 -0.519134 
-4.05796 -0.959247 -0.519187 -4.02008 -0.932821 -0.51378 -3.94558 -0.897189 -0.502914 
-3.94439 -0.880989 -0.502965 -3.9432 -0.864788 -0.503016 -3.94201 -0.848588 -0.503067 
-3.94082 -0.832388 -0.503118 -4.047 -0.294077 -0.527074 -4.24761 -0.293447 -0.557725 
-4.47918 -1.09285 -0.600436 -4.43102 -1.06154 -0.59331 -4.21102 -0.985025 -0.559783 
-4.08978 -0.936277 -0.541404 -4.04992 -0.909486 -0.53552 -4.04869 -0.892776 -0.535573 
-3.97333 -0.857736 -0.524218 -3.9366 -0.832748 -0.5188 -4.17254 -0.461596 -0.56143 
-4.25477 -0.454401 -0.574488 -4.21121 -0.431572 -0.567964 -4.05005 -0.395792 -0.543104 
-4.08801 -0.383167 -0.549269 -3.89672 -0.808688 -0.529063 -3.89554 -0.792648 -0.529114 
-3.85992 -0.76871 -0.523693 -3.85876 -0.752831 -0.523743 -3.82317 -0.729375 -0.518322 
-3.60604 -0.740601 -0.497769 -3.57561 -0.719022 -0.493017 -3.57454 -0.704456 -0.493063 
-3.63213 -0.703095 -0.502707 -3.66035 -0.694721 -0.507553 -3.98162 -0.586572 -0.562907 
-4.13344 -0.595302 -0.588142 -4.17243 -0.584504 -0.594825 -4.05242 -0.548554 -0.575326 
-4.05118 -0.531663 -0.575379 -4.04994 -0.514773 -0.575432 -3.90195 -0.477059 -0.551285 
-3.79828 -0.446792 -0.534427 -3.65535 -0.680077 -0.522098 -3.65425 -0.6651 -0.522145 
-3.68442 -0.656599 -0.527466 -3.71356 -0.6476 -0.532618 -3.71244 -0.632335 -0.532666 
-3.71131 -0.617071 -0.532714 -3.74243 -0.607885 -0.538207 -3.77352 -0.598397 -0.543702 
-3.83881 -0.594745 -0.554985 -3.69715 -0.883782 -0.541392 -3.69604 -0.868659 -0.541439 
-3.69493 -0.853536 -0.541487 -3.66246 -0.830177 -0.536124 -3.66136 -0.8152 -0.536171 
-3.63094 -0.792792 -0.531157 -3.60054 -0.770659 -0.526141 -3.59946 -0.755956 -0.526187 
-3.56909 -0.734234 -0.521171 -3.56802 -0.719668 -0.521216 -3.59622 -0.711848 -0.526326 
-3.62439 -0.703754 -0.531437 -3.6233 -0.688915 -0.531484 -3.46878 -0.890821 -0.515167 
-3.54872 -0.886544 -0.529754 -3.51823 -0.835685 -0.525056 -3.51718 -0.821379 -0.525101 
[...]
POINT_DATA 9443
SCALARS z_coord float
LOOKUP_TABLE default
0.665172 0.64883 0.639473 0.897209 0.916357 0.906703 0.926094 0.93613 0.871678 
0.880806 0.890175 0.919109 0.929199 0.609895 0.855397 0.892316 0.91193 0.892206 
0.894605 0.894549 0.925165 0.867768 0.87728 0.897041 0.86961 0.88942 0.852144 
0.881605 0.863463 0.808535 0.82712 0.817639 0.79935 0.817522 0.773274 0.773217 
0.808802 0.544299 0.747786 0.755949 0.781719 0.781661 0.790602 0.763789 0.772519 
0.491816 0.488105 0.484578 0.48454 0.484502 0.487952 0.484427 0.484389 0.484351 
0.484313 0.480789 0.736118 0.479994 0.476374 0.472934 0.469495 0.469457 0.46942 
0.472783 0.469345 0.469307 0.46927 0.465832 0.701788 0.475386 0.475347 0.475308 
0.471778 0.471739 0.46821 0.457638 0.4576 0.460874 0.464148 0.46411 0.471042 
0.478148 0.481767 0.489219 0.493011 0.496977 0.669099 0.669043 0.463381 0.463342 
0.459903 0.432019 0.41408 0.615316 0.392523 0.604977 0.582012 0.575927 0.581903 
0.565414 0.56536 0.571308 0.565251 0.554529 0.548653 0.554419 0.554364 0.556478 
0.544418 0.544362 0.544307 0.550181 0.544196 0.54414 0.538298 0.538243 0.538188 
0.538133 0.538078 0.538023 0.537639 0.531947 0.544969 0.533024 0.521628 0.527174 
0.527119 0.521464 0.515946 0.515892 0.515838 0.521244 0.515729 0.515675 0.50419 
0.504135 0.509487 0.504025 0.509376 0.50932 0.509154 0.509098 0.514576 0.51452 
0.503531 0.498208 0.498154 0.503367 0.50871 0.503257 0.503202 0.491522 0.486258 
0.481122 0.481067 0.486093 0.459747 0.46447 0.479477 0.479421 0.484629 0.308039 
0.316183 0.316136 0.31885 0.321754 0.336932 0.327558 0.321611 0.336782 0.333499 
0.343148 0.349943 0.349891 0.360579 0.360525 0.353155 0.353103 0.35305 0.364014 
0.356553 0.342639 0.342588 0.34937 0.349318 0.349266 0.356234 0.29162 0.299189 
0.301771 0.304353 0.318531 0.312683 0.301585 0.312586 0.318333 0.324439 0.321311 
0.333932 0.337137 0.33048 0.337032 0.333723 0.336927 0.350978 0.347308 0.340203 
0.336716 0.336664 0.34709 0.347036 0.339938 0.346927 0.31714 0.323429 0.333485 
0.34411 0.340372 0.273602 0.275923 0.278407 0.275829 0.150654 0.136736 0.125821 
0.0305282 0.0148233 -0.000658093 -0.0161846 -0.031711 -0.0387858 -0.0453428 -0.0554922 -0.0669976 
-0.0702921 -0.0784893 -0.0833473 -0.0912552 -0.119006 -0.135712 -0.148799 -0.145417 -0.163212 
-0.179388 -0.17744 -0.195564 -0.21174 -0.209463 -0.225422 -0.225474 -0.241433 -0.241485 
-0.260267 -0.2633 -0.276443 -0.27965 -0.286227 -0.292672 -0.302172 -0.302224 -0.318014 
-0.318066 -0.333856 -0.330361 -0.353616 -0.34975 -0.369627 -0.361725 -0.385638 -0.381434 
-0.40165 -0.397276 -0.422131 -0.433672 -0.424453 -0.44475 -0.444802 -0.489316 -0.512385 
-0.542538 -0.549184 -0.528255 -0.513572 -0.513624 -0.519134 -0.519187 -0.51378 -0.502914 
-0.502965 -0.503016 -0.503067 -0.503118 -0.527074 -0.557725 -0.600436 -0.59331 -0.559783 
-0.541404 -0.53552 -0.535573 -0.524218 -0.5188 -0.56143 -0.574488 -0.567964 -0.543104 
-0.549269 -0.529063 -0.529114 -0.523693 -0.523743 -0.518322 -0.497769 -0.493017 -0.493063 
-0.502707 -0.507553 -0.562907 -0.588142 -0.594825 -0.575326 -0.575379 -0.575432 -0.551285 
-0.534427 -0.522098 -0.522145 -0.527466 -0.532618 -0.532666 -0.532714 -0.538207 -0.543702 
-0.554985 -0.541392 -0.541439 -0.541487 -0.536124 -0.536171 -0.531157 -0.526141 -0.526187 
-0.521171 -0.521216 -0.526326 -0.531437 -0.531484 -0.515167 -0.529754 -0.525056 -0.525101 
-0.525146 -0.525191 -0.525236 -0.525281 -0.525326 -0.530208 -0.530254 -0.530299 -0.530345 
-0.540605 -0.545848 -0.503375 -0.503414 -0.487518 -0.487557 -0.516124 -0.519702 -0.503237 
-0.499249 -0.515594 -0.537578 -0.551512 -0.50669 -0.506727 -0.518905 -0.531701 -0.554419 
-0.55446 -0.540711 -0.552742 -0.534908 -0.529599 -0.542306 -0.546913 -0.493849 -0.508333 
-0.516792 -0.520775 -0.524758 -0.511828 -0.504489 -0.493796 -0.500982 -0.524015 -0.531957 
-0.544304 -0.548595 -0.507832 -0.504217 -0.490568 -0.500864 -0.530856 -0.52701 -0.535037 
-0.518257 -0.51457 -0.507394 -0.511149 -0.503971 -0.545988 -0.546024 -0.528682 -0.528716 
-0.524956 -0.52499 -0.521467 -0.521501 -0.503779 -0.513496 -0.517153 -0.531718 -0.513135 
-0.558137 -0.516185 -0.509447 -0.512988 -0.519571 -0.505726 -0.499377 -0.502724 -0.512197 
-0.505847 -0.496434 -0.496464 -0.502876 -0.512351 -0.522939 -0.519394 -0.519425 -0.523033 
-0.533285 -0.540472 -0.536927 -0.544115 -0.518473 -0.51201 -0.508723 -0.502518 -0.518718 
-0.535987 -0.528998 -0.529029 -0.532764 -0.532796 -0.511338 -0.514538 -0.517739 -0.521205 
-0.530339 -0.52365 0.17876 0.171839 -0.1089 -0.161382 -0.165995 0.180786 0.174905 
0.170144 -0.114363 -0.117851 -0.162424 -0.166403 -0.170382 -0.172815 0.163241 0.157839 
0.15186 0.127943 0.12236 -0.128167 -0.132508 -0.136509 -0.141609 -0.17712 -0.180594 
-0.184992 0.163299 0.158363 0.151246 -0.1323 -0.135842 -0.138998 -0.142664 -0.177562 
-0.179288 -0.181623 -0.185551 0.267704 0.185057 0.18365 0.182045 0.1423 0.136954 
0.13286 -0.140055 -0.144647 -0.148694 -0.152742 -0.155798 -0.159824 -0.163851 -0.185447 
-0.187054 -0.191714 -0.195663 0.264346 0.258844 0.195368 0.189165 0.183599 0.178604 
0.146461 0.140198 0.133935 -0.161287 -0.164905 -0.168932 -0.174042 -0.199167 -0.199391 
0.256513 0.195166 0.186488 0.181553 0.177141 0.140956 0.135351 0.128851 -0.166379 
-0.169987 -0.174449 -0.207407 -0.212028 0.212037 0.203979 0.196943 0.190596 0.13626 
0.130821 -0.182516 -0.181998 -0.18608 -0.191322 -0.197316 -0.217418 -0.223163 -0.262002 
-0.264263 0.210502 0.202463 0.195438 0.189097 0.134337 0.128839 -0.221319 -0.262162 
-0.265334 0.228853 0.221385 0.197643 0.176156 0.170963 0.164106 0.159477 0.154198 
-0.271445 -0.275549 -0.281275 -0.608731 -0.609322 0.151223 0.146051 0.140745 0.136261 
0.130821 0.124988 -0.264467 -0.26678 -0.268416 -0.280727 -0.605649 0.160069 0.152625 
0.146792 0.140959 0.135126 0.129732 0.124632 -0.274056 -0.273886 -0.277699 -0.285397 
-0.599791 -0.600347 -0.600833 -0.601252 0.128197 0.122338 0.117178 0.111272 -0.293294 
-0.29647 -0.300643 -0.59522 -0.598215 -0.601174 -0.6041 -0.602647 0.126236 0.120803 
0.115943 -0.29339 -0.299589 -0.305839 -0.57405 -0.578941 -0.581673 0.115125 -0.305432 
-0.307975 -0.309086 -0.31645 -0.516604 -0.316111 -0.484082 -0.493043 -0.497374 -0.490446 
-0.478377 -0.511417 -0.320377 -0.486743 -0.492701 -0.475674 -0.473133 0.0168155 0.0119042 
0.00735429 -0.506478 -0.321506 -0.325816 -0.330127 -0.47402 -0.469305 -0.472833 0.0106343 
-0.512806 -0.323691 -0.328014 -0.331256 -0.469185 -0.47651 -0.466385 0.0244292 0.00916335 
-0.490979 -0.519403 -0.332385 -0.336695 -0.341005 -0.346439 -0.461693 -0.467489 -0.471812 
-0.477646 -0.462772 -0.457709 0.00789798 -0.599156 -0.591592 -0.345318 -0.350755 -0.356218 
-0.465644 -0.469852 -0.463687 -0.458608 0.00672067 -0.536079 -0.634935 -0.357351 -0.462473 
-0.469754 -0.467038 -0.464414 0.0151641 -0.507067 -0.361634 -0.365944 -0.371453 -0.478989 
-0.477721 0.402426 0.400095 -0.514754 -0.376191 -0.479936 -0.471323 0.40114 0.397516 
0.39639 0.37781 -0.519968 -0.512005 -0.511037 -0.395394 -0.40274 -0.407184 0.401151 
-0.503746 -0.598036 -0.415363 -0.421131 -0.427363 -0.512549 -0.499832 0.406095 0.405029 
-0.469484 -0.479107 -0.624734 -0.425344 -0.429857 -0.514767 -0.511627 -0.495409 -0.067048 
-0.478737 -0.481628 -0.487755 -0.627377 -0.511025 -0.578593 -0.438214 -0.441408 -0.444576 
0.417395 0.0220633 0.0167691 -0.481291 -0.487366 -0.500795 -0.511258 -0.507217 -0.590711 
-0.589037 -0.5872 -0.454829 -0.514633 -0.506802 0.409779 -0.505379 -0.51045 -0.506614 
-0.592435 -0.590742 -0.474859 -0.501847 -0.504217 -0.502565 -0.507695 -0.506048 0.340467 
-0.531502 -0.64319 -0.510317 -0.485939 -0.517517 -0.521763 -0.508054 0.345329 0.340141 
0.333941 0.323551 -0.506649 -0.492311 -0.518629 -0.522875 -0.510849 0.31925 0.312277 
-0.637328 -0.519497 -0.535675 -0.522528 -0.520601 0.298041 0.291541 -0.497356 -0.528677 
-0.527902 0.285429 0.276356 0.270067 0.263837 -0.493609 -0.499962 0.282354 0.277545 
0.271215 0.266436 0.262491 -0.496234 -0.506253 0.254813 0.250052 0.243928 0.239957 
0.233721 -0.499756 -0.502492 -0.498003 -0.568957 0.2312 0.225699 0.217826 0.213627 
0.209565 0.203085 0.194689 0.187251 -0.495047 -0.483684 -0.493367 -0.573607 0.230481 
0.225147 0.219668 0.212392 0.207191 0.202963 0.196099 -0.476538 -0.486221 -0.567211 
0.189336 0.182263 -0.472516 -0.478618 -0.541839 -0.546322 -0.554706 -0.559218 -0.562033 
-0.564251 -0.563562 -0.566269 0.174716 -0.47502 -0.491294 -0.548513 -0.560243 -0.567058 
-0.566028 -0.563211 -0.566453 -0.56743 0.177105 0.166378 -0.474098 -0.493831 -0.514416 
-0.53902 -0.556107 -0.564576 -0.572077 -0.480028 -0.500109 -0.524625 -0.622762 -0.628358 
-0.534867 -0.532679 -0.535155 -0.541876 -0.546475 -0.552704 -0.557315 0.156243 0.144837 
-0.531078 -0.61643 -0.543411 -0.548126 -0.547523 -0.55005 -0.554704 -0.557725 -0.562366 
0.150873 0.144408 0.139852 -0.51497 -0.543808 -0.549911 -0.591329 -0.601704 -0.545015 
-0.539931 -0.537306 -0.545661 -0.563313 -0.452559 -0.461153 -0.556533 -0.540587 -0.545336 
-0.544305 -0.545299 -0.564154 0.136506 0.131141 0.125571 -0.469236 -0.489794 -0.545368 
-0.534654 -0.535898 -0.540677 -0.543384 -0.54658 -0.568131 -0.56978 0.1323 0.12523 
0.118882 0.114283 0.109685 -0.542696 -0.537739 -0.544655 -0.547556 -0.564851 -0.568108 
-0.571364 0.403287 0.132312 0.125902 0.119318 0.113623 0.107966 0.103605 -0.551915 
-0.567451 -0.562041 -0.556958 -0.569639 -0.572126 -0.572217 0.109228 0.102881 0.0978236 
0.0932423 0.0883305 -0.552048 -0.557236 -0.564388 -0.569593 -0.5708 -0.568619 -0.57759 
0.0926832 0.087299 0.0817372 0.0768465 -0.564049 -0.569332 -0.577076 -0.579897 -0.590789 
-0.58445 -0.516163 -0.580636 -0.582405 0.0926135 0.0857323 0.0807571 0.0760806 -0.561536 
-0.573126 -0.576585 -0.6006 -0.591915 -0.590571 -0.566754 -0.571201 -0.576111 -0.577929 
0.407899 0.403055 0.0812853 0.0760704 0.0709285 0.0659416 0.0617614 -0.541565 -0.559913 
-0.565376 -0.570839 -0.576302 -0.599207 -0.599892 -0.594912 -0.59357 -0.54985 -0.553262 
-0.558153 -0.565293 0.407633 0.404097 0.0865416 0.0815934 0.0763352 0.0703802 0.0650011 
0.0604014 -0.553575 -0.567863 -0.585134 -0.588394 -0.591611 -0.60036 -0.601038 -0.59979 
-0.594689 0.405361 0.401504 0.058943 0.0544865 0.0501461 -0.55274 -0.558263 -0.566099 
-0.603365 0.442772 0.439524 0.402763 0.401544 0.0536118 0.0490447 0.0446705 0.0402958 
0.0357057 -0.563286 -0.575784 -0.581458 -0.604521 0.442101 0.441532 0.43828 0.405141 
0.0534355 0.0483105 0.0437503 0.0392066 0.0345182 -0.573151 -0.562475 -0.568063 -0.593184 
-0.595726 -0.60196 0.434837 0.408738 0.405184 0.0380859 0.0332989 0.0286445 0.0240233 
0.0193947 -0.569308 -0.560949 -0.56667 -0.572391 -0.592498 -0.595023 0.406128 0.403903 
0.0420103 0.0369836 0.0321144 0.0274323 0.0228107 0.0181163 -0.577901 -0.578929 -0.579862 
-0.580701 -0.591804 -0.594314 0.409713 0.404856 0.02138 0.0168123 0.012013 0.00721553 
0.00238374 -0.575404 -0.578781 -0.579454 -0.580469 -0.589261 -0.595453 0.40844 0.403584 
0.00113961 -0.00370073 -0.593095 -0.574369 -0.575079 -0.573912 -0.577085 -0.590397 -0.594733 
0.407168 0.401322 0.00448388 -0.000186261 -0.00520071 -0.0098536 -0.575875 -0.587608 -0.60199 
-0.597306 -0.575935 -0.593382 -0.599594 0.401234 0.400053 -0.00619575 -0.0109577 -0.0157196 
-0.0198434 -0.553564 -0.565113 -0.569124 -0.570235 -0.571234 -0.588327 -0.596375 -0.602603 
0.382313 0.37926 0.397474 -0.00818705 -0.0127768 -0.0171368 -0.0212153 -0.550096 -0.554014 
-0.565552 -0.574345 -0.586077 -0.598337 -0.59893 -0.597518 -0.60188 0.380564 0.377212 
0.376008 -0.023168 -0.0270086 -0.0314845 -0.0361691 -0.0413089 -0.046301 -0.562381 -0.563466 
-0.556902 -0.563273 -0.597992 0.373129 0.372934 0.370539 -0.0430734 -0.561381 -0.576179 
-0.582813 -0.593591 0.370978 0.369013 0.367696 -0.0447887 -0.0490666 -0.0540434 -0.558018 
-0.570049 -0.571284 -0.572398 -0.591023 0.367934 0.366608 0.365213 -0.0519108 -0.0555991 
-0.0603782 -0.0657995 -0.068873 -0.565555 -0.572408 -0.573523 -0.571803 -0.592155 0.364117 
-0.054583 -0.0582579 -0.0613004 -0.0658021 -0.068912 -0.0719624 -0.575302 -0.579375 -0.591427 
0.364047 -0.0720718 -0.0768338 -0.0812933 -0.596284 0.363971 0.36178 0.359206 -0.079936 
-0.0850855 -0.0891985 -0.0928093 -0.0947177 -0.59742 -0.597996 0.360827 0.359663 0.357096 
-0.0826861 -0.0875943 -0.0925025 -0.096071 -0.0983766 -0.101455 -0.598556 -0.599125 0.360747 
-0.106207 -0.110531 -0.11443 -0.118672 -0.597818 -0.600254 0.358634 -0.108819 -0.11141 
-0.116206 -0.121003 -0.600828 0.357538 -0.123761 -0.128605 -0.133449 -0.137694 -0.601964 
0.383912 0.376496 0.353249 0.349051 -0.144405 -0.148612 -0.153438 -0.158265 -0.161198 
-0.592569 -0.598764 0.351159 0.347951 -0.145674 -0.150998 -0.155361 -0.159529 -0.163663 
-0.597425 -0.598025 0.375412 0.373402 -0.161474 -0.16562 -0.170447 -0.598565 -0.599158 
0.373018 0.370942 0.365708 -0.168733 -0.169516 -0.17243 -0.599704 -0.598409 0.370163 
0.368797 0.364612 -0.179098 -0.183955 -0.188811 -0.19446 -0.199334 -0.598971 -0.599538 
0.369783 0.363515 0.358314 0.354142 0.317428 0.313806 -0.198128 -0.203053 -0.20881 
-0.214601 -0.220427 -0.594482 -0.595003 0.367202 0.358233 0.354048 0.313005 0.308713 
-0.209255 -0.214284 -0.215901 -0.22086 -0.593729 0.360163 0.353947 0.352697 0.351047 
0.347732 0.343448 0.342226 0.334216 0.321464 0.318077 0.310288 0.299413 0.294969 
-0.226847 -0.223909 -0.226228 -0.229352 -0.232407 -0.236338 -0.592436 0.318884 0.312223 
0.305605 0.301133 0.294558 -0.246328 -0.249288 -0.25143 -0.253477 -0.256205 -0.258076 
-0.262791 -0.267506 -0.26836 -0.276095 -0.281649 -0.294301 -0.296982 -0.297493 -0.601052 
0.307003 0.301308 0.290597 -0.245678 -0.251556 -0.252699 -0.254734 -0.260309 -0.265118 
-0.269928 -0.276917 -0.280654 -0.286605 -0.290307 -0.293105 -0.298783 -0.299415 -0.301743 
-0.602191 0.272433 0.249548 0.243826 0.236384 0.219362 0.214385 0.208689 0.203778 
0.198057 0.191603 0.185319 -0.273535 -0.310158 -0.310221 -0.313955 -0.31638 -0.595813 
0.248869 0.242328 0.236606 0.217876 0.212893 0.207197 0.201502 0.195806 0.190111 
0.183832 -0.279329 -0.285474 -0.318205 -0.3196 -0.3209 -0.319851 -0.593174 0.276078 
0.270335 0.265471 0.234934 0.228325 0.176116 0.169929 0.164298 0.158667 0.153036 
0.147854 0.142629 0.13736 0.131665 0.126404 0.120683 0.114962 0.109837 0.104072 
0.098308 -0.288948 -0.291907 -0.298108 -0.302102 -0.307199 -0.311142 -0.332813 -0.331394 
-0.329156 -0.331642 -0.332741 -0.335089 -0.450507 -0.590521 -0.594766 0.278421 0.272588 
0.267803 0.232649 0.22679 0.162829 0.156948 0.0973464 0.0917627 0.0859296 -0.337253 
-0.31082 -0.315952 -0.319907 -0.326216 -0.330136 -0.342297 -0.348456 -0.350891 -0.470021 
-0.590373 -0.594611 0.264131 0.259167 0.254954 0.0971398 0.0912121 0.0852844 0.0793567 
0.0732713 0.0675012 0.0617111 0.0556458 0.0497181 0.0437403 0.0378341 0.031935 -0.313599 
-0.316132 -0.322428 -0.330258 -0.334212 -0.350291 -0.352578 -0.358857 -0.362429 -0.571668 
-0.573408 -0.548232 -0.557765 -0.562935 -0.592745 -0.596991 0.000616226 -0.00549039 -0.339681 
-0.330296 -0.372376 -0.369221 -0.367252 -0.365464 -0.574444 -0.582418 -0.562312 -0.495132 
-0.497805 -0.500451 -0.589107 -0.591495 -0.382617 -0.383647 -0.372348 -0.369149 -0.369935 
-0.57823 -0.567627 -0.564378 -0.55505 -0.546515 -0.5921 -0.592611 -0.217378 -0.226878 
-0.240435 -0.384261 -0.388998 -0.37543 -0.535678 -0.539127 -0.54694 -0.54812 -0.564941 
-0.573456 -0.57217 -0.57734 -0.558945 -0.562161 -0.591345 -0.593726 -0.206756 -0.214752 
-0.222454 -0.231927 -0.23917 -0.381443 -0.38084 -0.38009 -0.37814 -0.558536 -0.580579 
-0.586325 -0.588703 -0.596735 -0.158785 -0.241471 -0.390287 -0.389415 -0.387343 -0.38227 
-0.551061 -0.566429 -0.590945 -0.58668 -0.589311 -0.591699 -0.595958 -0.273585 -0.286107 
-0.314978 -0.321581 -0.326551 -0.331461 -0.339697 -0.359416 -0.365989 -0.372562 -0.379135 
-0.385708 -0.394215 -0.396889 -0.403432 -0.406215 -0.410647 -0.413231 -0.415704 -0.419904 
-0.422489 -0.428753 -0.430864 -0.431245 -0.435408 -0.386301 -0.589738 -0.595571 -0.593954 
-0.592199 -0.576958 -0.584297 -0.588556 -0.296577 -0.30376 -0.324839 -0.336714 -0.343441 
-0.350169 -0.364721 -0.371355 -0.376136 -0.380857 -0.38743 -0.394003 -0.396631 -0.401427 
-0.403849 -0.408507 -0.411021 -0.415243 -0.423711 -0.427873 -0.434188 -0.436657 -0.438698 
-0.444905 -0.445111 -0.414279 -0.594015 -0.594787 -0.590796 -0.586626 -0.567574 -0.585413 
-0.587794 -0.16153 -0.297085 -0.310291 -0.362138 -0.594635 -0.58574 -0.593732 -0.535943 
-0.555903 -0.573612 -0.579679 -0.168483 -0.18362 -0.303559 -0.316886 -0.588043 -0.58638 
-0.60466 -0.603079 -0.597153 -0.589446 -0.499579 -0.502293 -0.514248 -0.522981 -0.531177 
-0.307051 -0.320377 -0.621509 -0.589501 -0.592652 -0.618034 -0.502357 -0.507445 -0.514333 
-0.302227 -0.323197 -0.513425 -0.520088 -0.512016 -0.606977 -0.600267 -0.596324 -0.61127 
-0.621829 -0.612585 -0.610805 -0.611498 -0.531327 -0.520065 -0.299468 -0.316611 -0.530656 
-0.535015 -0.538953 -0.618238 -0.614055 -0.60721 -0.612712 -0.625816 -0.626271 -0.616848 
-0.567118 -0.590421 -0.591262 -0.296878 -0.316926 -0.539304 -0.549049 -0.555936 -0.565415 
-0.2885 -0.307689 -0.557741 -0.567227 -0.604591 -0.605589 -0.608528 -0.611424 -0.614278 
-0.273461 -0.28907 -0.31118 -0.612302 -0.632331 -0.6333 -0.568014 -0.601557 -0.599496 
-0.604895 -0.610293 -0.611062 -0.614346 -0.132518 -0.146643 -0.179495 -0.194732 -0.219507 
-0.228526 -0.234712 -0.245526 -0.251114 -0.261317 -0.27683 -0.62595 -0.623024 -0.584618 
-0.591776 -0.592509 -0.601985 -0.605735 -0.61174 -0.612177 -0.61298 -0.613687 -0.616685 
-0.622518 -0.620583 -0.616062 -0.604442 -0.132948 -0.145363 -0.161096 -0.186908 -0.196161 
-0.216072 -0.247828 -0.248418 -0.26734 -0.280198 -0.624285 -0.62525 -0.598719 -0.59665 
-0.600809 -0.603564 -0.609591 -0.615617 -0.616528 -0.619691 -0.622802 -0.623471 -0.629352 
-0.624526 -0.612639 -0.600937 -0.136201 -0.613187 -0.614375 -0.604924 -0.605726 -0.579576 
-0.585529 -0.594177 -0.129813 -0.138044 -0.639779 -0.656672 -0.615452 -0.624099 -0.624444 
-0.618876 -0.606664 -0.586434 -0.652102 -0.661097 -0.617718 -0.632931 -0.602042 -0.633731 
-0.64954 0.727637 0.688019 0.668931 -0.623863 -0.641845 -0.652462 -0.635018 0.705861 
0.667288 0.654431 -0.630181 -0.629582 -0.639239 -0.655502 0.728209 0.697466 0.690793 
0.683677 0.676778 0.658194 0.634855 0.617245 0.60005 -0.641771 -0.625461 -0.607443 
-0.605224 -0.609255 -0.633183 -0.63063 -0.63132 0.718564 0.688481 0.681663 0.67485 
0.667597 0.644096 0.621448 0.599423 0.565136 -0.601021 -0.604979 -0.608878 -0.618495 
-0.616077 -0.62569 -0.635789 0.715226 0.685228 0.591624 0.575088 0.558943 0.542988 
0.535318 0.523506 0.511694 0.523838 -0.602799 -0.60675 -0.604496 -0.59957 -0.611968 
-0.627444 -0.628162 0.724089 0.705246 0.720691 0.701877 0.723449 0.698509 0.668541 
0.707998 0.683569 0.670934 0.52828 0.519498 0.673053 0.660311 0.642357 0.520307 
0.502985 -0.713965 0.656973 0.64983 0.636973 0.608611 0.670479 0.668943 0.649962 
0.625886 -0.72292 -0.696942 -0.715777 0.646503 0.627794 0.614708 -0.693351 -0.701662 
0.637451 0.61909 0.606121 0.51088 0.488715 -0.64355 -0.659006 0.602723 0.467903 
-0.647599 -0.685816 0.633926 0.594416 0.464444 0.443691 0.430721 0.414407 -0.638585 
-0.660136 -0.673972 -0.674179 0.635971 0.595927 0.457053 0.440293 0.427323 0.414354 
-0.635638 -0.653619 -0.66735 -0.672004 -0.615263 -0.615823 -0.625987 -0.626785 0.618469 
0.610653 0.59253 0.423926 0.410956 0.397986 -0.632809 -0.660521 -0.614816 -0.621703 
-0.622419 0.592045 0.391445 -0.644485 -0.65887 -0.661306 -0.657142 -0.657608 -0.653692 
-0.620242 -0.624207 -0.631029 -0.634483 0.670946 0.669225 0.643054 0.629968 0.606657 
0.583991 -0.635071 -0.642548 -0.668452 -0.664302 -0.664485 -0.656116 -0.615897 -0.61979 
-0.620279 -0.633306 0.71814 0.699063 0.686093 0.636335 0.623593 0.605949 -0.639751 
-0.671023 -0.68084 -0.655352 -0.659992 -0.622033 -0.635076 0.708635 0.695665 0.677067 
0.602866 0.60511 0.59757 -0.655791 -0.649866 -0.683153 -0.688101 -0.636363 -0.640881 
-0.633926 -0.642474 -0.644226 -0.65248 0.71885 0.712271 0.699414 -0.386417 -0.398207 
-0.409734 -0.673375 -0.680692 -0.685759 -0.690689 -0.68594 -0.672414 0.747971 0.729678 