# vtk DataFile Version 4.2
vtk output
ASCII
DATASET POLYDATA
POINTS 8505 float
-1.91413 -0.702185 0.368105 -1.90133 -0.697205 0.359338 -1.89462 -0.687943 0.357804 
-1.30116 -0.469582 0.203876 -4.59516 -1.10089 0.936153 -4.73635 -1.138 0.950691 
-4.77724 -1.13205 0.925747 -1.30155 -0.464082 0.190238 -4.76236 -1.11306 0.871651 
-4.56203 -1.06453 0.815573 -4.65743 -1.06991 0.834266 -4.75722 -1.07551 0.853818 
-1.30414 -0.467207 0.176819 -1.30632 -0.464436 0.177258 -1.31508 -0.464784 0.178942 
-4.51118 -1.03532 0.789652 -4.60428 -1.03996 0.807531 -4.60417 -1.02187 0.807646 
-4.75208 -1.03796 0.835985 -1.30972 -0.470385 0.174343 -1.30312 -0.463362 0.173151 
-1.30967 -0.462673 0.174392 -1.30647 -0.461609 0.170275 -1.31083 -0.459836 0.171093 
-1.30327 -0.460545 0.166177 -1.30325 -0.456708 0.166201 -1.30003 -0.451825 0.162145 
-4.6482 -1.04388 0.629773 -4.55174 -1.00285 0.615759 -4.59927 -0.995683 0.622863 
-4.41082 -0.988392 0.578761 -4.24202 -0.931439 0.554814 -4.41062 -0.953403 0.578984 
-4.59436 -0.977298 0.605323 -4.64291 -0.969742 0.612384 -4.32098 -0.985075 0.549953 
-4.19882 -0.93884 0.533155 -4.15876 -0.912898 0.527723 -4.10869 -1.00128 0.474847 
-4.07199 -0.975633 0.470334 -4.0353 -0.95031 0.465819 -4.03521 -0.934388 0.465921 
-3.89141 -0.93021 0.433298 -3.89132 -0.914904 0.433395 -3.89123 -0.899599 0.433493 
-4.25725 -1.09299 0.461665 -4.13792 -1.04379 0.447725 -4.02719 -0.997925 0.434791 
-3.95621 -0.963443 0.426536 -3.92175 -0.938986 0.422583 -2.5154 -0.512263 0.257215 
-4.17368 -1.12081 0.435984 -4.17359 -1.10422 0.436089 -4.09624 -1.06603 0.427416 
-2.4647 -0.50127 0.242781 -2.46465 -0.492227 0.242839 -2.4646 -0.483184 0.242897 
-3.81447 -1.00323 0.381253 -3.75223 -0.970808 0.374543 -3.75214 -0.956066 0.374637 
-2.46237 -0.510271 0.233999 -2.47411 -0.503904 0.235351 -2.47405 -0.494809 0.235409 
-2.51043 -0.493663 0.239472 -3.57303 -0.963415 0.341555 -3.54511 -0.941401 0.338713 
-3.65851 -0.959873 0.350754 -3.56935 -0.96335 0.328081 -3.54147 -0.941337 0.325358 
-3.07834 -0.783714 0.278678 -2.92965 -0.730869 0.263707 -3.56576 -0.97725 0.314518 
-3.59345 -0.971456 0.3173 -2.51487 -0.496105 0.213824 -1.86378 -0.680847 0.142063 
-1.8819 -0.682428 0.143769 -1.88716 -0.671735 0.144342 -1.8583 -0.65289 0.141736 
-3.50776 -0.974639 0.295911 -3.53435 -0.968891 0.298472 -2.52522 -0.498866 0.206037 
-1.86209 -0.680817 0.13587 -1.89192 -0.687574 0.138526 -1.91001 -0.688941 0.140157 
-1.69214 -0.537258 0.121455 -1.71556 -0.540694 0.123554 -1.7102 -0.532879 0.123122 
-1.70164 -0.523899 0.122408 -1.69627 -0.516193 0.121975 -1.70157 -0.512483 0.122481 
-1.69194 -0.503264 0.121672 -1.68232 -0.494131 0.120862 -1.67802 -0.486986 0.120522 
-1.69185 -0.486267 0.12178 -1.70567 -0.485426 0.123039 -1.71523 -0.482996 0.123922 
-3.50415 -0.974575 0.28267 -3.4007 -0.929912 0.273602 -2.52276 -0.498823 0.197001 
-1.70023 -0.540997 0.116791 -1.71404 -0.540667 0.117987 -1.70869 -0.532852 0.117578 
-1.70439 -0.525489 0.117258 -1.7001 -0.518164 0.116937 -1.70007 -0.512456 0.116973 
-1.70004 -0.506748 0.11701 -1.68616 -0.496031 0.115884 -1.67655 -0.486959 0.115115 
-1.69462 -0.487744 0.116672 -1.70417 -0.485399 0.117513 -1.69988 -0.478206 0.117192 
-2.93622 -0.769319 0.22206 -2.88401 -0.743174 0.217726 -2.532 -0.501349 0.188959 
-4.38884 -0.785539 0.347509 -4.43341 -0.776074 0.351427 -4.52585 -0.774808 0.359425 
-4.57361 -0.764892 0.363622 -4.62243 -0.754732 0.367911 -2.41172 -0.502044 0.170181 
-2.46905 -0.506281 0.174867 -3.72359 -0.704971 0.276671 -4.09723 -0.714912 0.307328 
-4.38399 -0.75008 0.330668 -4.61761 -0.773375 0.34972 -4.6175 -0.754645 0.34984 
-4.6174 -0.735914 0.349959 -2.49169 -0.622906 0.167199 -2.40988 -0.590918 0.161035 
-2.40938 -0.502002 0.161602 -2.46665 -0.506239 0.166041 -2.47933 -0.499952 0.167074 
-2.388 -0.470655 0.160148 -2.39644 -0.499482 0.152258 -2.37412 -0.485533 0.150706 
-2.07243 -0.468533 0.121559 -2.39411 -0.499441 0.143725 -2.34111 -0.478444 0.14018 
-2.14234 -0.471828 0.119085 -2.13383 -0.462006 0.118596 -2.32837 -0.493093 0.131092 
-2.3389 -0.487011 0.131821 -1.51893 -0.474653 0.0548483 -1.64716 -0.382259 0.0558065 
-1.65554 -0.379034 0.0561597 -2.44101 -0.652127 0.0680255 -2.42943 -0.639526 0.0677492 
-2.49828 -0.670247 0.0606719 -2.52335 -0.668363 0.0613525 -2.44875 -0.655865 0.0506293 
-2.4717 -0.653566 0.0511562 -2.42231 -0.648494 0.041365 -2.42225 -0.639399 0.0414231 
-2.38653 -0.638257 0.0322021 -2.31973 -0.644415 0.0229399 -2.3301 -0.639046 0.0230698 
-2.33005 -0.630348 0.0231253 -2.33 -0.621651 0.0231808 -2.37267 -0.62582 0.0235467 
-1.25245 -0.436619 0.0107959 -2.19288 -0.661017 0.0138876 -2.28741 -0.660263 0.0143477 
-2.30818 -0.658595 0.0144584 -2.26754 -0.636826 0.0144021 -2.32786 -0.647702 0.0146229 
-2.30804 -0.632773 0.0146231 -2.32766 -0.612913 0.0148448 -3.59485 -0.749404 0.0200732 
-1.25145 -0.436601 0.00713033 -1.25351 -0.433789 0.00714912 -1.25557 -0.430959 0.00716806 
-2.21788 -0.686901 0.00593626 -2.1814 -0.657686 0.00610744 -2.18135 -0.649647 0.0061587 
-2.28517 -0.660223 0.0061345 -2.31527 -0.661634 0.00613805 -2.31523 -0.652984 0.00619321 
-2.32557 -0.647662 0.00623151 -2.31513 -0.635684 0.00630354 -3.74265 -0.768226 0.00605293 
-3.80698 -0.766936 0.00608804 -3.87338 -0.765497 0.00612487 -3.84004 -0.742879 0.00625535 
-1.49182 -0.601216 0.00145476 -1.48556 -0.593071 0.00153156 -2.32333 -0.656318 -0.00221542 
-2.40947 -0.493662 -0.00152565 -2.39801 -0.482002 -0.00140573 -2.88951 -0.524816 -0.00364021 
-2.30134 -0.649867 -0.0104005 -2.46616 -0.507182 -0.0108838 -2.78602 -0.5049 -0.0135604 
-2.81912 -0.500472 -0.0138108 -2.83563 -0.492616 -0.0139001 -2.97754 -0.507667 -0.0151892 
-1.26294 -0.43966 -0.00407206 -2.41608 -0.496194 -0.0192391 -2.90097 -0.494084 -0.0254537 
-1.2536 -0.428038 -0.00758477 -1.2453 -0.420374 -0.0073931 -1.09591 -0.626985 -0.00911633 
-1.09693 -0.624779 -0.00912469 -2.94972 -0.504074 -0.0486448 -2.84331 -0.473321 -0.0461393 
-1.09511 -0.630073 -0.0121298 -1.23915 -0.41465 -0.0145617 -2.89207 -0.505294 -0.0584338 
-2.87447 -0.490686 -0.0578818 -2.80738 -0.467325 -0.0559784 -2.83758 -0.495481 -0.0677627 
-2.85502 -0.487586 -0.0682488 -2.80449 -0.467274 -0.0665728 -2.60563 -0.522438 -0.070618 
-2.67657 -0.52779 -0.0731453 -2.63073 -0.528555 -0.0814777 -2.68925 -0.531095 -0.0838141 
-2.71899 -0.526967 -0.0849682 -2.73435 -0.519567 -0.0855315 -2.70448 -0.502814 -0.0842443 
-1.22286 -0.401905 -0.0321232 -1.2414 -0.418341 -0.0368499 -1.59383 -0.746512 -0.0736074 
-1.5885 -0.776621 -0.0787695 -1.59664 -0.77631 -0.0793491 -1.60066 -0.76789 -0.0795862 
-1.59648 -0.748953 -0.0791746 -1.60871 -0.750824 -0.0800589 -1.62501 -0.75501 -0.0812487 
-1.57591 -0.709738 -0.0774705 -1.25678 -0.427742 -0.0568292 -1.22128 -0.420476 -0.0688857 
-1.22029 -0.420459 -0.0725101 -1.22031 -0.420925 -0.0762422 -1.08156 -0.585744 -0.0720777 
-4.17287 -0.427973 -0.435283 -4.30252 -0.423188 -0.450526 -1.08074 -0.58573 -0.0750851 
-1.08093 -0.58655 -0.0782254 -1.0799 -0.582598 -0.0780726 -1.08111 -0.587369 -0.0813748 
-2.71004 -0.66597 -0.296697 -2.70998 -0.655141 -0.296628 -2.70992 -0.644312 -0.296559 
-2.70986 -0.633483 -0.29649 -2.72584 -0.626755 -0.298561 -2.72578 -0.61585 -0.298491 
-1.07928 -0.58652 -0.0842493 -2.80424 -0.670038 -0.32043 -2.83924 -0.667885 -0.3252 
-2.83918 -0.65643 -0.325127 -2.80405 -0.636172 -0.320214 -2.80399 -0.624884 -0.320142 
-1.07947 -0.58734 -0.0874078 -1.24639 -0.425461 -0.110107 -2.534 -0.928979 -0.294975 
-2.54696 -0.92439 -0.296782 -2.55992 -0.919677 -0.298588 -2.65964 -0.886656 -0.312503 
-2.64556 -0.870799 -0.310425 -3.21887 -0.847108 -0.391355 -1.08366 -0.591496 -0.0911801 
-2.68815 -0.952157 -0.32768 -2.70309 -0.947374 -0.329837 -2.68784 -0.898367 -0.327337 
-2.68778 -0.887609 -0.327268 -1.08581 -0.590819 -0.0946665 -2.6852 -0.930591 -0.337923 
-2.65418 -0.907779 -0.333115 -2.64013 -0.89179 -0.330907 -2.65394 -0.865334 -0.332844 
-2.59596 -0.833545 -0.323918 -2.50103 -0.788969 -0.309346 -2.42609 -0.752407 -0.297833 
-1.23132 -0.419774 -0.119564 -2.66659 -0.95629 -0.345987 -2.66653 -0.945608 -0.345919 
-2.68243 -0.941298 -0.348371 -2.68237 -0.930541 -0.348302 -2.66635 -0.913562 -0.345714 
-2.55129 -0.808024 -0.32722 -2.41161 -0.748095 -0.305142 -2.36568 -0.722478 -0.29785 
-2.34228 -0.632081 -0.293709 -2.34223 -0.622934 -0.293651 -2.38804 -0.627531 -0.300809 
-2.66372 -0.945558 -0.356225 -2.69454 -0.947222 -0.361182 -2.71042 -0.94269 -0.363705 
-2.43303 -0.756586 -0.318166 -2.38616 -0.730506 -0.310502 -2.39669 -0.659026 -0.311801 
-2.66091 -0.945508 -0.366532 -2.67677 -0.941198 -0.36913 -2.43007 -0.679837 -0.326928 
-2.44289 -0.664669 -0.328965 -2.83833 -0.718138 -0.394622 -2.64217 -0.759025 -0.373119 
-2.61331 -0.739201 -0.368101 -2.59835 -0.724033 -0.365474 -2.8353 -0.718084 -0.405751 
-2.69448 -0.658909 -0.414504 -2.79138 -0.674025 -0.432474 -1.09401 -0.599904 -0.121954 
-2.73892 -0.649565 -0.43394 -1.09613 -0.602362 -0.125666 -2.70441 -0.641169 -0.438498 
-2.78221 -0.639758 -0.465165 -2.71426 -0.623125 -0.462783 -2.76243 -0.624146 -0.472623 
-2.83126 -0.629779 -0.486706 -2.86662 -0.626691 -0.493911 -2.6337 -0.603229 -0.45711 
-2.66411 -0.600187 -0.463453 -2.74367 -0.608937 -0.480134 -2.82814 -0.618105 -0.497844 
-2.77305 -0.605492 -0.497855 -2.77299 -0.594123 -0.497782 -2.74053 -0.575247 -0.490738 
-1.14316 -0.498946 -0.152047 -1.14707 -0.497927 -0.152898 -1.14902 -0.49564 -0.153312 
-1.14605 -0.490277 -0.152635 -1.14407 -0.485549 -0.152176 -1.14601 -0.483247 -0.15259 
-1.15091 -0.482717 -0.153658 -1.15187 -0.479771 -0.153854 -1.15381 -0.477402 -0.154268 
-1.15576 -0.475015 -0.154681 -1.15377 -0.470297 -0.154222 -1.1567 -0.468463 -0.154854 
-1.16257 -0.468308 -0.156139 -1.16746 -0.467531 -0.157206 -1.17236 -0.466707 -0.158273 
-1.1743 -0.464173 -0.158685 -2.68967 -0.58601 -0.49112 -2.72098 -0.58246 -0.497958 
-2.72092 -0.571328 -0.497887 -1.13738 -0.502757 -0.154354 -1.13736 -0.49928 -0.154332 
-1.14028 -0.497679 -0.154978 -1.17528 -0.461603 -0.162631 -1.08028 -0.584406 -0.145265 
[...]
POINT_DATA 8505
SCALARS z_coord float
LOOKUP_TABLE default
0.368105 0.359338 0.357804 0.203876 0.936153 0.950691 0.925747 0.190238 0.871651 
0.815573 0.834266 0.853818 0.176819 0.177258 0.178942 0.789652 0.807531 0.807646 
0.835985 0.174343 0.173151 0.174392 0.170275 0.171093 0.166177 0.166201 0.162145 
0.629773 0.615759 0.622863 0.578761 0.554814 0.578984 0.605323 0.612384 0.549953 
0.533155 0.527723 0.474847 0.470334 0.465819 0.465921 0.433298 0.433395 0.433493 
0.461665 0.447725 0.434791 0.426536 0.422583 0.257215 0.435984 0.436089 0.427416 
0.242781 0.242839 0.242897 0.381253 0.374543 0.374637 0.233999 0.235351 0.235409 
0.239472 0.341555 0.338713 0.350754 0.328081 0.325358 0.278678 0.263707 0.314518 
0.3173 0.213824 0.142063 0.143769 0.144342 0.141736 0.295911 0.298472 0.206037 
0.13587 0.138526 0.140157 0.121455 0.123554 0.123122 0.122408 0.121975 0.122481 
0.121672 0.120862 0.120522 0.12178 0.123039 0.123922 0.28267 0.273602 0.197001 
0.116791 0.117987 0.117578 0.117258 0.116937 0.116973 0.11701 0.115884 0.115115 
0.116672 0.117513 0.117192 0.22206 0.217726 0.188959 0.347509 0.351427 0.359425 
0.363622 0.367911 0.170181 0.174867 0.276671 0.307328 0.330668 0.34972 0.34984 
0.349959 0.167199 0.161035 0.161602 0.166041 0.167074 0.160148 0.152258 0.150706 
0.121559 0.143725 0.14018 0.119085 0.118596 0.131092 0.131821 0.0548483 0.0558065 
0.0561597 0.0680255 0.0677492 0.0606719 0.0613525 0.0506293 0.0511562 0.041365 0.0414231 
0.0322021 0.0229399 0.0230698 0.0231253 0.0231808 0.0235467 0.0107959 0.0138876 0.0143477 
0.0144584 0.0144021 0.0146229 0.0146231 0.0148448 0.0200732 0.00713033 0.00714912 0.00716806 
0.00593626 0.00610744 0.0061587 0.0061345 0.00613805 0.00619321 0.00623151 0.00630354 0.00605293 
0.00608804 0.00612487 0.00625535 0.00145476 0.00153156 -0.00221542 -0.00152565 -0.00140573 -0.00364021 
-0.0104005 -0.0108838 -0.0135604 -0.0138108 -0.0139001 -0.0151892 -0.00407206 -0.0192391 -0.0254537 
-0.00758477 -0.0073931 -0.00911633 -0.00912469 -0.0486448 -0.0461393 -0.0121298 -0.0145617 -0.0584338 
-0.0578818 -0.0559784 -0.0677627 -0.0682488 -0.0665728 -0.070618 -0.0731453 -0.0814777 -0.0838141 
-0.0849682 -0.0855315 -0.0842443 -0.0321232 -0.0368499 -0.0736074 -0.0787695 -0.0793491 -0.0795862 
-0.0791746 -0.0800589 -0.0812487 -0.0774705 -0.0568292 -0.0688857 -0.0725101 -0.0762422 -0.0720777 
-0.435283 -0.450526 -0.0750851 -0.0782254 -0.0780726 -0.0813748 -0.296697 -0.296628 -0.296559 
-0.29649 -0.298561 -0.298491 -0.0842493 -0.32043 -0.3252 -0.325127 -0.320214 -0.320142 
-0.0874078 -0.110107 -0.294975 -0.296782 -0.298588 -0.312503 -0.310425 -0.391355 -0.0911801 
-0.32768 -0.329837 -0.327337 -0.327268 -0.0946665 -0.337923 -0.333115 -0.330907 -0.332844 
-0.323918 -0.309346 -0.297833 -0.119564 -0.345987 -0.345919 -0.348371 -0.348302 -0.345714 
-0.32722 -0.305142 -0.29785 -0.293709 -0.293651 -0.300809 -0.356225 -0.361182 -0.363705 
-0.318166 -0.310502 -0.311801 -0.366532 -0.36913 -0.326928 -0.328965 -0.394622 -0.373119 
-0.368101 -0.365474 -0.405751 -0.414504 -0.432474 -0.121954 -0.43394 -0.125666 -0.438498 
-0.465165 -0.462783 -0.472623 -0.486706 -0.493911 -0.45711 -0.463453 -0.480134 -0.497844 
-0.497855 -0.497782 -0.490738 -0.152047 -0.152898 -0.153312 -0.152635 -0.152176 -0.15259 
-0.153658 -0.153854 -0.154268 -0.154681 -0.154222 -0.154854 -0.156139 -0.157206 -0.158273 
-0.158685 -0.49112 -0.497958 -0.497887 -0.154354 -0.154332 -0.154978 -0.162631 -0.145265 
-0.157026 -0.157231 -0.157664 -0.166391 -0.453816 -0.159925 -0.161738 -0.170784 -0.522763 
-0.16373 -0.16629 -0.174812 -0.175261 -0.429687 -0.429631 -0.522354 -0.522286 -0.536963 
-0.179076 -0.179533 -0.179028 -0.187508 -0.423728 -0.423674 -0.525334 -0.525267 -0.539994 
-0.182607 -0.183074 -0.18403 -0.19172 -0.528518 -0.187684 -0.187161 -0.186138 -0.195502 
-0.197471 -0.525017 -0.52148 -0.549664 -0.545878 -0.166343 -0.189717 -0.534862 -0.53126 
-0.552582 -0.169719 -0.17048 -0.194849 -0.206116 -0.509459 -0.518938 -0.522227 -0.173389 
-0.173633 -0.200274 -0.201303 -0.209928 -0.531714 -0.528241 -0.534737 -0.17521 -0.175998 
-0.176517 -0.20552 -0.21374 -0.541013 -0.178315 -0.179666 -0.208095 -0.21864 -0.211743 
-0.224104 -0.216516 -0.228524 -0.21794 -0.219061 -0.233247 -0.190507 -0.220697 -0.222127 
-0.238289 -0.238844 -0.192758 -0.193926 -0.225198 -0.226946 -0.242188 -0.242162 -0.197031 
-0.228527 -0.228503 -0.248781 -0.247258 -0.487371 -0.499857 -0.199851 -0.230934 -0.231519 
-0.251809 -0.251783 -0.499775 -0.512753 -0.512701 -0.515376 -0.202662 -0.233327 -0.233922 
-0.236061 -0.253884 -0.518116 -0.543281 -0.561676 -0.20641 -0.20702 -0.207945 -0.236335 
-0.236939 -0.23817 -0.512533 -0.517788 -0.209536 -0.210155 -0.210455 -0.24055 -0.243073 
-0.243049 -0.258186 -0.213615 -0.214568 -0.243193 -0.244784 -0.246052 -0.502245 -0.216755 
-0.217722 -0.218688 -0.247095 -0.248381 -0.250322 -0.511709 -0.219562 -0.221209 -0.222189 
-0.236886 -0.248396 -0.249701 -0.251337 -0.265729 -0.521566 -0.225023 -0.242607 -0.244271 
-0.251339 -0.251989 -0.251966 -0.251943 -0.253939 -0.266163 -0.264794 -0.465359 -0.22819 
-0.247047 -0.254877 -0.255536 -0.25756 -0.257537 -0.267867 -0.267843 -0.437281 -0.230663 
-0.253501 -0.252739 -0.256062 -0.255693 -0.25567 -0.274299 -0.439835 -0.438073 -0.434587 
-0.233821 -0.255498 -0.261625 -0.438766 -0.438727 -0.478403 -0.236266 -0.441053 -0.439246 
-0.436024 -0.480751 -0.474712 -0.240839 -0.241179 -0.440025 -0.438195 -0.245103 -0.244351 
-0.442452 -0.443866 -0.442377 -0.248284 -0.247522 -0.44623 -0.251465 -0.251818 -0.255784 
-0.255004 -0.452331 -0.452294 -0.454139 -0.454102 -0.258936 -0.451418 -0.451382 -0.454775 
-0.453634 -0.262131 -0.450352 -0.453401 -0.458377 -0.456798 -0.457278 -0.265326 -0.455764 
-0.462785 -0.464694 -0.268918 -0.462827 -0.461212 -0.466754 -0.473411 -0.272922 -0.463066 
-0.47228 -0.475828 -0.276537 -0.47376 -0.472108 -0.477805 -0.481395 -0.279339 -0.480787 
-0.477484 -0.484961 -0.495926 -0.283773 -0.283752 -0.486272 -0.482932 -0.490542 -0.286995 
-0.286974 -0.499273 -0.495478 -0.492752 -0.290642 -0.290196 -0.49826 -0.505471 -0.515937 
-0.513744 -0.511983 -0.506341 -0.516665 -0.520502 -0.518313 -0.531242 -0.531204 -0.527244 
-0.525027 -0.517508 -0.511807 -0.504364 -0.495615 -0.493837 -0.493802 -0.52834 -0.539187 
-0.536947 -0.535147 -0.536872 -0.536834 -0.532833 -0.521273 -0.513311 -0.507991 -0.502673 
-0.499116 -0.497321 -0.535748 -0.35279 -0.354549 -0.49776 -0.504395 -0.50436 -0.502546 
-0.54149 -0.543674 -0.543636 -0.352141 -0.352117 -0.352093 -0.355674 -0.358328 -0.52452 
-0.511471 -0.509639 -0.507807 -0.505975 -0.545325 -0.549326 -0.361221 -0.362107 -0.508241 
-0.509437 -0.507587 -0.511183 -0.542814 -0.516425 -0.520057 -0.520023 -0.516148 -0.517946 
-0.52524 -0.532534 -0.316993 -0.318349 -0.527258 -0.529075 -0.527188 -0.525301 -0.526943 
-0.53246 -0.534275 -0.542104 -0.319722 -0.36512 -0.36885 -0.42765 -0.420597 -0.421974 
-0.420542 -0.434007 -0.541764 -0.541728 -0.536084 -0.53418 -0.350472 -0.351872 -0.353745 
-0.476999 -0.541488 -0.539565 -0.537642 -0.539495 -0.535685 -0.359662 -0.357724 -0.360572 
-0.505167 -0.495581 -0.322039 -0.322018 -0.354165 -0.356558 -0.362289 -0.360816 -0.458527 
-0.326653 -0.325165 -0.351813 -0.356671 -0.462936 -0.33078 -0.329279 -0.361084 -0.468847 
-0.514905 -0.519833 -0.464875 -0.508224 -0.513198 -0.519672 -0.464248 -0.35704 -0.356005 
-0.355983 -0.357481 -0.514403 -0.514371 -0.50626 -0.45666 -0.455622 -0.45408 -0.455566 
-0.465548 -0.359388 -0.360388 -0.360878 -0.514556 -0.514525 -0.512965 -0.462406 -0.462378 
-0.459804 -0.459776 -0.473923 -0.362189 -0.363671 -0.465041 -0.463985 -0.467555 -0.482371 
-0.356906 -0.358968 -0.359882 -0.361422 -0.359839 -0.360338 -0.474388 -0.493972 -0.364827 
-0.370498 -0.368857 -0.36726 -0.368814 -0.478653 -0.496842 -0.372257 -0.374355 -0.484415 
-0.484436 -0.487068 -0.490288 -0.497249 -0.503164 -0.520595 -0.511802 -0.521849 -0.518904 
-0.526328 -0.51878 -0.529154 -0.530778 -0.521431 -0.51689 -0.533619 -0.535257 -0.521154 
-0.525475 -0.524301 -0.524272 -0.523962 -0.523934 -0.526794 -0.529983 -0.527043 -0.525268 
-0.526988 -0.537179 -0.534215 -0.531253 -0.539659 -0.536673 -0.533688 -0.536155 -0.536127 
-0.537902 -0.54523 -0.542176 -0.540322 -0.541475 -0.528512 -0.532762 -0.554915 -0.556126 
-0.528557 -0.551591 -0.55406 -0.540721 -0.53378 -0.532497 -0.533478 -0.54356 -0.547966 
-0.55454 -0.5363 -0.531725 -0.530414 -0.555299 -0.553969 -0.548075 -0.544138 -0.539549 
-0.53822 -0.553425 -0.550773 -0.549434 -0.549408 -0.549382 -0.560648 -0.554671 -0.553323 
-0.551975 -0.549966 -0.549941 -0.558673 -0.567304 -0.571938 -0.567251 -0.561233 -0.577322 
-0.578636 -0.57861 -0.569869 -0.563809 -0.567898 -0.580024 -0.584723 -0.586046 -0.565791 
-0.567805 -0.574576 -0.582707 -0.580642 -0.594242 -0.590794 -0.583241 -0.57087 -0.573601 
-0.57702 -0.581128 -0.585925 -0.56652 -0.566495 -0.589926 -0.5899 -0.589874 -0.589848 
-0.56333 -0.567495 -0.561386 -0.559928 -0.543723 -0.545907 -0.544268 -0.547206 -0.549403 
-0.546942 -0.547404 -0.547381 -0.550356 -0.5508 -0.550777 -0.55377 -0.55578 -0.555758 
-0.555735 -0.555713 -0.554173 -0.560824 -0.560802 -0.560779 -0.55923 -0.557681 -0.564238 
-0.56268 -0.561122 -0.558796 -0.56472 -0.564698 -0.563903 -0.56388 -0.56463 -0.564608 
-0.56613 -0.134005 -0.135606 -0.12302 -0.126787 -0.130493 -0.566359 -0.119475 -0.124212 
-0.127971 -0.549532 -0.559582 -0.119211 -0.124448 -0.128169 -0.545657 -0.557479 -0.109389 
-0.114798 -0.120391 -0.55562 -0.565697 0.328064 -0.111676 0.314194 0.313088 -0.112813 
-0.580562 -0.575697 -0.57665 0.313096 -0.111095 -0.115272 -0.580703 -0.572866 -0.559736 
-0.558566 -0.572554 -0.575405 -0.582451 -0.5874 -0.596645 0.309665 -0.113149 -0.11722 
-0.551053 -0.556019 -0.558953 -0.559802 -0.563379 -0.582829 0.309266 -0.114698 -0.118911 
0.309088 0.303778 0.298467 -0.122945 0.307752 0.302442 0.298015 -0.133029 -0.580542 
-0.585357 0.303123 0.299752 0.295226 -0.588756 -0.593588 0.305443 -0.592163 -0.594804 
0.309464 0.286507 -0.0562012 -0.0610915 -0.0662933 -0.0714004 -0.592347 0.287045 0.28317 
0.0387693 0.0265158 0.0202823 -0.0681807 -0.0736619 -0.0787096 -0.0841465 -0.0890307 -0.593574 
0.293856 0.289968 0.283805 0.0680936 0.0623973 0.0557672 0.0375478 0.031392 0.0249574 
0.0185482 -0.0712509 -0.0759472 -0.0810304 -0.0865093 -0.0914288 -0.590973 -0.58535 0.282254 
0.277145 0.271983 0.265768 0.135257 0.129981 -0.088399 -0.0933281 -0.578179 -0.579189 
0.279631 0.275588 0.27042 0.264205 0.159109 0.154017 0.149318 0.143976 0.13905 
-0.0913063 -0.0953265 -0.581552 -0.582572 0.250212 0.244909 0.230708 0.223685 0.211359 
0.204439 0.19611 0.188759 0.182068 -0.0982307 -0.101077 -0.105401 -0.14124 -0.143198 
-0.582768 -0.585417 0.230857 0.222135 0.215971 0.209033 0.202895 -0.104144 -0.108327 
-0.113087 -0.117653 -0.122796 -0.126152 -0.133097 -0.137321 -0.13732 -0.138411 -0.146578 
-0.149413 -0.152321 -0.153593 -0.157525 -0.583984 -0.586628 0.229288 0.219763 0.213626 
0.207489 0.200608 -0.108301 -0.111986 -0.116203 -0.120283 -0.12479 -0.127559 -0.134468 
-0.138093 -0.138638 -0.138595 -0.139656 -0.145138 -0.15047 -0.15633 -0.159209 -0.160953 
-0.163262 -0.587374 -0.587839 -0.130151 -0.132721 -0.169233 -0.171349 -0.172782 -0.174835 
-0.582648 -0.587527 -0.134077 -0.135969 -0.171668 -0.175639 -0.178446 -0.180395 -0.583875 
-0.584964 -0.19089 -0.193556 -0.19531 -0.585103 -0.587812 -0.204656 -0.207152 -0.210224 
-0.214136 -0.218022 -0.588488 -0.589035 -0.216701 -0.221391 -0.223777 -0.594043 -0.588624 
-0.240598 -0.241794 -0.24464 -0.590353 -0.251129 -0.591593 -0.265265 -0.590676 -0.585259 
-0.276869 -0.279572 -0.284219 -0.288866 -0.585426 -0.584295 -0.291425 -0.294995 -0.585024 
0.147545 -0.30894 -0.31279 -0.586692 -0.587317 0.148475 0.136096 -0.328251 -0.587933 
-0.592864 0.144504 0.131731 -0.587028 -0.587618 0.152704 0.148875 0.143558 0.122473 
0.116789 0.111491 -0.35068 -0.590414 -0.595345 0.152773 0.147406 0.142083 0.114173 
0.108936 0.103539 -0.593808 0.141032 0.133853 0.127576 0.0862069 0.0802824 -0.589402 
-0.594385 0.126571 0.121107 0.114533 0.0710615 0.0641463 0.057289 -0.5864 -0.595639 
0.124662 0.119289 0.11347 -0.585513 -0.590444 0.118169 0.112006 0.106188 0.0389637 
0.031908 -0.453025 -0.58606 0.1167 0.111241 0.105375 0.0300713 -0.585186 0.103899 
0.0974418 0.0913264 0.0855336 0.0799859 0.013994 0.00659501 -0.517897 -0.522712 -0.530059 
-0.534441 -0.539079 -0.586431 0.0845612 0.0789595 0.0728809 0.00526386 -0.0023309 -0.00969631 
-0.0173543 -0.0249255 -0.520834 -0.528333 -0.530035 -0.537455 -0.5419 -0.497566 -0.504238 
-0.585544 -0.588325 0.0842954 0.0779094 0.0717898 -0.0109758 -0.018752 -0.0265017 -0.528381 
-0.535957 -0.510216 -0.509474 -0.591057 0.312581 0.303424 0.298161 0.0705085 0.0645951 
0.0586817 -0.0280896 -0.0356489 -0.0433172 -0.0510188 -0.126816 -0.136342 -0.145281 -0.15259 
-0.159899 -0.168226 -0.522711 -0.535968 -0.540742 -0.523606 -0.522629 -0.520172 -0.523518 
-0.524519 -0.52591 -0.530996 -0.584481 -0.585217 0.308304 0.306906 0.300265 0.0634144 
0.0575951 -0.0447963 -0.0528758 -0.143776 -0.149992 -0.158989 -0.167104 -0.524617 -0.535043 
-0.539769 -0.549363 -0.530252 -0.531472 -0.532615 -0.53368 -0.537004 -0.537936 -0.581513 
-0.58859 0.279593 0.0439494 -0.0681211 -0.0753955 -0.0826699 -0.0893326 -0.0959903 -0.182404 
-0.192811 -0.20012 -0.209755 -0.218408 -0.227138 -0.523702 -0.546752 -0.551912 -0.550757 
-0.551941 -0.555033 -0.560085 -0.56916 -0.576276 -0.584873 -0.585574 0.273918 0.267983 
0.263081 -0.235116 -0.24533 -0.252828 -0.2618 -0.269337 -0.521842 -0.520853 -0.586615 
-0.585361 0.271526 0.264561 0.2597 0.0591575 0.0514825 0.0443158 -0.231817 -0.240341 
-0.249095 -0.260729 -0.271233 -0.522758 -0.583708 -0.586618 0.257192 0.042864 0.0353969 
-0.270018 -0.281764 -0.29574 -0.306652 -0.315993 -0.323646 -0.524664 -0.608392 -0.60632 
-0.604049 -0.596344 -0.579952 -0.582876 -0.585765 0.253853 0.248013 0.243135 0.237269 
0.0411878 0.0337639 -0.261661 -0.274624 -0.284738 -0.296877 -0.305767 -0.316698 -0.532212 
-0.616016 -0.610821 -0.605759 -0.600842 -0.579134 -0.57784 -0.578558 0.26115 0.255237 
0.249324 0.242455 0.236568 0.129407 0.123308 0.115524 0.109755 0.104286 0.0983064 
0.0922487 0.0863322 0.079986 0.0737507 0.0667261 0.0607497 0.054095 0.0469429 0.0394071 
0.0319489 -0.32977 -0.340953 -0.354231 -0.365763 -0.537283 -0.61326 -0.623529 -0.617792 
-0.609789 -0.584224 -0.579879 -0.57322 -0.574317 -0.570618 -0.576631 -0.578593 -0.579527 
-0.580391 -0.579085 0.236077 0.227523 0.22151 0.216181 0.14314 0.136817 0.130495 
0.124172 -0.511119 -0.518854 -0.532729 -0.609398 -0.572131 -0.571751 -0.576837 -0.575759 
-0.576649 0.246569 0.234658 0.22573 0.140595 0.134775 0.128479 0.122182 -0.516059 
-0.526875 -0.540551 -0.608435 -0.573643 -0.57303 -0.580159 -0.577025 -0.577907 0.225647 
0.215829 0.169672 0.164101 0.15783 0.151559 0.145288 0.139018 0.132747 -0.481519 
-0.489216 -0.49954 -0.507275 -0.523727 -0.550442 -0.604335 -0.581092 -0.579786 -0.584963 
-0.579396 0.243126 0.235229 0.2154 0.207133 0.200612 -0.480611 -0.491152 -0.501486 
-0.515168 -0.52872 -0.555576 -0.568073 -0.583617 -0.586906 -0.585121 -0.575589 -0.578625 
0.227747 0.220916 0.214085 -0.487961 -0.493088 -0.554418 -0.604519 0.212367 0.205536 
0.197828 0.190295 0.182821 0.176085 0.169349 0.16323 0.156464 0.147393 -0.550388 
-0.558209 -0.566031 -0.606312 0.208891 0.202915 0.196119 0.189323 0.182526 0.17506 
0.168934 0.162834 0.156003 0.148545 -0.552355 -0.556955 -0.561469 -0.608105 0.11346 
0.107442 -0.558912 -0.560467 -0.611998 -0.615821 0.10447 0.0985011 0.092481 0.0864511 
0.0800984 -0.562404 0.102195 0.0962761 0.0900353 0.0840796 0.0782456 -0.562684 -0.573305 
-0.616133 0.0701466 0.064197 0.0581354 0.0517268 -0.605019 -0.605885 0.0757493 0.0693407 
0.062932 0.0566512 0.0502167 -0.593167 0.042721 0.0361309 0.0294595 0.0227882 0.0161167 
-0.59295 0.0277411 -0.594598 0.0260799 -0.601962 -0.611461 0.0371991 0.0308732 -0.606491 
0.0355508 0.0292369 -0.611035 -0.614803 0.0337917 0.027551 -0.616069 -0.622981 -0.621809 
-0.617321 -0.610318 -0.611981 -0.613644 -0.61143 -0.615307 -0.610542 -0.630774 -0.619049 
-0.632508 -0.626958 -0.619012 -0.619509 -0.617404 -0.621187 -0.616311 -0.646129 -0.646636 
-0.638519 -0.618573 -0.621322 -0.591153 -0.601297 -0.604309 -0.607932 -0.61797 -0.608811 
-0.628136 -0.622901 -0.632718 -0.610672 -0.617666 -0.624661 -0.628421 -0.618317 -0.619426 
-0.617197 -0.62085 -0.626388 -0.618003 -0.61595 -0.613771 -0.598584 -0.59951 -0.599193 
-0.597383 -0.575948 -0.588072 -0.572325 -0.581556 -0.0255122 -0.0297215 -0.0336538 -0.0458351 
-0.0503577 -0.0545983 -0.0587749 -0.0633454 -0.567233 -0.0396165 -0.0437608 -0.0480003 -0.0524304 
-0.0567302 -0.0609649 -0.544632 -0.539028 -0.556789 -0.55972 -0.0288974 -0.0773198 -0.0818382 
-0.0860417 -0.0902453 -0.0940823 -0.564949 -0.551972 -0.556886 -0.0301525 -0.075099 -0.0790102 
-0.0832267 -0.0877871 -0.0920165 -0.0962459 -0.498917 -0.551182 -0.554035 0.00438413 -0.0312478 
-0.0983046 -0.504791 -0.512235 -0.519279 -0.556475 -0.559358 -0.00612545 -0.0339261 -0.510838 
-0.517826 -0.521226 -0.557715 -0.558542 -0.563439 -0.0117753 -0.016506 -0.020912 -0.026249 
-0.0307368 -0.0350518 -0.492109 -0.502504 -0.514817 -0.556917 -0.557718 -0.562597 -0.0398332 
-0.044252 -0.0493871 -0.0550639 -0.0593541 -0.0625193 -0.0663464 -0.507007 -0.563825 -0.568704 
-0.575697 -0.586983 -0.56658 -0.563653 -0.0401756 -0.044748 -0.0493462 -0.0549715 -0.0594335 
-0.0638954 -0.504625 -0.565052 -0.569932 -0.581163 -0.590362 -0.567765 -0.568647 -0.0727025 
-0.0778058 -0.0828655 -0.505883 -0.580019 -0.583071 -0.101102 -0.508973 -0.590385 -0.590647 
-0.0995049 -0.508399 -0.513339 -0.580134 -0.509068 -0.593973 -0.40298 -0.500356 -0.505339 
-0.506622 -0.582055 -0.588992 -0.448265 -0.453317 -0.458369 -0.463421 -0.488428 -0.495214 
-0.500232 -0.507069 -0.510267 -0.579902 -0.586856 -0.585469 -0.587925 -0.462944 -0.466361 
-0.491459 -0.498266 -0.505108 -0.508336 -0.517053 -0.581378 -0.578542 -0.573382 -0.581945 
-0.584415 -0.587414 -0.481191 -0.576157 -0.576613 -0.577548 -0.46392 -0.48653 -0.493899 
-0.577365 -0.583801 -0.580934 -0.574223 -0.572785 -0.578745 -0.614105 -0.610037 -0.620396 
0.327929 0.324672 0.320597 0.318502 0.314468 0.311964 0.309818 -0.492638 -0.501753 
0.320949 0.318452 0.315556 -0.470653 -0.482538 -0.496723 -0.507595 -0.516815 -0.526112 
0.291696 0.290288 -0.53278 -0.542203 0.292185 0.289757 -0.520113 -0.531237 -0.517012 
-0.522115 -0.537002 -0.586043 0.195142 0.192046 0.188532 0.185017 0.182655 0.179115 
0.175574 0.172034 0.168494 -0.517848 -0.53037 0.190754 0.187249 0.184133 0.181001 
0.177851 0.174684 0.171144 0.167256 -0.515409 -0.527915 -0.577992 -0.564797 0.15705 
0.143356 0.139772 0.136189 0.132865 0.129273 0.125923 0.122556 -0.514812 -0.521688 
-0.583667 0.162616 0.158742 0.132475 0.125976 0.122341 -0.517933 -0.519189 -0.561313 
-0.56819 0.104274 0.100769 0.0581023 0.0503979 -0.519195 -0.522328 -0.566788 -0.571543 
-0.52233 -0.525475 -0.567984 -0.52172 -0.526737 -0.570794 -0.512373 -0.57415 -0.581109 
-0.591936 -0.505524 -0.506806 -0.511755 -0.518588 -0.586128 -0.596997 -0.0795644 -0.0880232 
-0.0968524 -0.101734 -0.508616 -0.511761 -0.516744 -0.517948 -0.589526 -0.600424 -0.0557752 
-0.493082 -0.498065 -0.503048 -0.508031 -0.514874 -0.590746 -0.595595 -0.494336 -0.497507 
-0.502472 -0.509285 -0.519859 -0.5958 -0.598472 -0.290261 -0.295762 -0.301593 -0.306227 
-0.310861 -0.316444 -0.321091 -0.326713 -0.33269 -0.338368 -0.363442 -0.389504 -0.396959 
-0.403345 -0.417761 -0.424268 -0.430809 -0.435792 -0.439165 -0.442504 -0.452385 -0.457386 
-0.45735 -0.463995 -0.470674 -0.479117 -0.48763 -0.492682 -0.49417 -0.59099 -0.59361 
-0.590621 -0.589196 -0.583439 -0.588129 -0.590112 -0.55185 -0.594692 -0.59946 -0.589723 
-0.598964 -0.482909 -0.499375 -0.58997 -0.497888 -0.620445 -0.653377 -0.654283 -0.649796 
-0.635891 -0.591824 -0.598198 -0.505739 -0.635542 -0.642621 -0.650204 -0.656235 -0.662347 
-0.657616 -0.648301 -0.592993 -0.59937 -0.595379 -0.590981 -0.587788 -0.508921 -0.59561 
-0.613992 -0.626978 -0.63423 -0.651612 -0.646897 -0.658439 -0.595883 -0.608634 -0.588723 