# vtk DataFile Version 4.2
vtk output
ASCII
DATASET POLYDATA
POINTS 10605 float
-2.69465 -1.66294 0.567778 -2.70551 -1.67247 0.561703 -2.69206 -1.65324 0.558529 
-2.71741 -1.67304 0.555845 -2.67496 -1.63329 0.545835 -2.6457 -1.61432 0.530332 
-2.77083 -1.83438 0.549537 -2.6978 -1.66263 0.53367 -2.6432 -1.61427 0.521191 
-2.72377 -1.81014 0.529773 -2.7682 -1.83433 0.539874 -2.69525 -1.66258 0.524305 
-2.64071 -1.61423 0.51205 -2.69341 -1.78872 0.514135 -2.73557 -1.81133 0.52356 
-2.62489 -1.60472 0.499948 -2.76288 -1.82422 0.520614 -2.62242 -1.60468 0.490861 
-2.7026 -1.78021 0.498614 -2.60775 -1.59596 0.479161 -2.68564 -1.76917 0.486164 
-2.63075 -1.61405 0.475486 -2.69747 -1.78012 0.479765 -2.66911 -1.63354 0.474861 
-2.68054 -1.76908 0.467434 -2.62571 -1.60449 0.457264 -2.71992 -1.80116 0.466391 
-2.59785 -1.58642 0.443077 -2.70299 -1.79013 0.454065 -2.57004 -1.56835 0.4291 
-2.70035 -1.78026 0.444648 -2.70029 -1.77043 0.444711 -2.57971 -1.57693 0.422483 
-3.23337 -0.856428 0.556229 -3.2333 -0.844278 0.556307 -2.67027 -1.75919 0.430036 
-2.68451 -1.76035 0.432768 -2.55308 -1.55964 0.408976 -2.56512 -1.559 0.411298 
-3.23017 -0.856372 0.544506 -3.2301 -0.844221 0.544583 -3.20886 -0.765876 0.54108 
-2.65454 -1.74906 0.418262 -2.66766 -1.74944 0.420733 -2.55066 -1.5596 0.400096 
-2.55061 -1.55039 0.400155 -3.18487 -0.760379 0.525562 -2.63768 -1.7285 0.406463 
-3.20251 -0.765763 0.517807 -2.63516 -1.72846 0.397212 -3.26451 -0.906 0.516897 
-3.3315 -0.787715 0.529864 -3.40246 -0.793075 0.542633 -2.63269 -1.738 0.3879 
-2.67424 -1.76017 0.39507 -3.26127 -0.905943 0.504991 -3.19617 -0.76565 0.494534 
-2.69895 -1.77113 0.390271 -2.69889 -1.76125 0.390334 -2.60318 -1.58514 0.375116 
-2.61624 -1.5849 0.377372 -3.2144 -0.89254 0.485657 -3.21371 -0.771033 0.486432 
-2.66904 -1.75031 0.376283 -2.6821 -1.75046 0.378482 -2.60069 -1.5851 0.365975 
-3.2112 -0.892483 0.473934 -3.29873 -0.794161 0.489405 -2.6392 -1.72949 0.362524 
-2.66642 -1.7405 0.366921 -2.61128 -1.59435 0.358919 -3.20801 -0.892426 0.46221 
-3.27259 -0.788092 0.473597 -2.64974 -1.73942 0.35524 -2.64969 -1.72971 0.355302 
-2.60878 -1.5943 0.349723 -2.59565 -1.57554 0.347754 -3.16358 -0.891665 0.443875 
-3.38566 -0.831598 0.479952 -3.38559 -0.818656 0.480035 -2.66134 -1.75018 0.34801 
-2.61992 -1.70901 0.34183 -2.58016 -1.57568 0.336577 -2.5801 -1.56626 0.336637 
-3.18099 -0.885976 0.435582 -3.40722 -0.838228 0.471322 -3.43103 -0.831473 0.475095 
-2.64464 -1.73933 0.33651 -2.6174 -1.70897 0.332579 -2.6167 -1.58433 0.333374 
-3.2418 -0.905597 0.433554 -2.55086 -1.66949 0.314116 -2.56384 -1.67009 0.316037 
-2.61418 -1.58428 0.324124 -3.26022 -0.912209 0.424814 -2.53638 -1.64179 0.303597 
-2.59864 -1.57506 0.313062 -3.25694 -0.912151 0.412816 -2.57078 -1.66968 0.299632 
-2.57073 -1.66026 0.299692 -2.63627 -1.61301 0.30922 -2.63621 -1.6033 0.309282 
-3.21045 -0.898755 0.394853 -3.21038 -0.88651 0.394931 -3.21031 -0.874264 0.395009 
-3.46804 -0.858051 0.431265 -2.58129 -1.67949 0.292243 -2.67477 -1.63231 0.305306 
-3.18557 -0.879879 0.380224 -3.22868 -0.880686 0.386087 -3.22861 -0.868346 0.386166 
-3.22854 -0.856006 0.386244 -3.43862 -0.851009 0.414881 -2.60415 -1.59369 0.28706 
-2.60409 -1.5841 0.287121 -3.24706 -0.899542 0.376903 -3.26963 -0.89391 0.379923 
-3.24692 -0.874672 0.377061 -3.26949 -0.868841 0.380083 -3.33813 -0.824778 0.38946 
-3.4868 -0.851413 0.408903 -2.60222 -1.69911 0.277136 -2.62861 -1.61287 0.281125 
-2.62855 -1.60317 0.281187 -3.35887 -0.908765 0.379564 -3.33511 -0.888906 0.376664 
-3.26613 -0.856248 0.368069 -3.24344 -0.837309 0.365302 -3.2886 -0.837484 0.371078 
-3.28852 -0.82485 0.371158 -3.35844 -0.831115 0.380059 -3.48325 -0.85135 0.395886 
-2.61312 -1.6036 0.270223 -2.61306 -1.59395 0.270285 -3.33181 -0.901684 0.364196 
-3.33174 -0.888846 0.364278 -3.33166 -0.876009 0.36436 -3.37999 -0.876893 0.370339 
-3.42831 -0.877351 0.37632 -3.47986 -0.87827 0.382697 -3.50559 -0.871756 0.38593 
-3.5324 -0.865301 0.389296 -2.65031 -1.61236 0.265608 -2.69143 -1.76287 0.260122 
-2.69138 -1.75286 0.260186 -2.60793 -1.58421 0.251726 -2.64581 -1.73017 0.245898 
-2.68874 -1.75281 0.250524 -2.63226 -1.60316 0.245277 -2.68611 -1.75277 0.240862 
-2.60286 -1.58412 0.233106 -2.61384 -1.70967 0.224316 -2.68347 -1.75272 0.2312 
-2.61318 -1.59319 0.225059 -2.62521 -1.72023 0.216256 -2.68084 -1.75267 0.221538 
-2.66523 -1.63188 0.220831 -2.58199 -1.68917 0.203192 -2.64933 -1.73071 0.209289 
-2.70539 -1.66222 0.215078 -2.57947 -1.68912 0.193941 -2.60613 -1.69982 0.196283 
-2.70267 -1.65203 0.205362 -2.64418 -1.74051 0.190149 -2.658 -1.74117 0.191339 
-2.7 -1.65199 0.195581 -2.65533 -1.73118 0.181804 -2.71225 -1.6625 0.186955 
-2.78891 -1.7063 0.192959 -2.65271 -1.73113 0.172206 -2.72447 -1.67302 0.1782 
-2.78614 -1.70625 0.182785 -2.59586 -1.68994 0.158885 -2.76748 -1.70543 0.171444 
-2.78337 -1.7062 0.172611 -2.56676 -1.66972 0.14781 -2.71907 -1.67293 0.158383 
-2.71901 -1.66266 0.158448 -2.67288 -1.64194 0.145842 -2.65904 -1.62211 0.145072 
-2.54895 -1.65042 0.128658 -2.68389 -1.63143 0.137025 -2.55909 -1.65041 0.12018 
-2.68122 -1.63138 0.127244 -2.53119 -1.63123 0.109725 -2.70815 -1.6522 0.118878 
-2.67589 -1.63128 0.107683 -2.53887 -1.64071 0.0919356 -2.65952 -1.62155 0.0973637 
-2.56275 -1.67024 0.0835902 -2.57533 -1.67016 0.0840895 -2.65687 -1.6215 0.0876422 
-2.57278 -1.67012 0.0747246 -2.69735 -1.652 0.0792429 -2.54396 -1.65014 0.0646761 
-2.67994 -1.64153 0.0689467 -2.58127 -1.67062 0.0563531 -2.58121 -1.66085 0.0564153 
-2.70652 -1.64166 0.0598805 -2.5787 -1.67057 0.0469287 -2.59122 -1.67026 0.0472101 
-2.67445 -1.62102 0.049387 -2.57613 -1.67053 0.0375043 -2.60225 -1.68045 0.0379089 
-2.64357 -1.61119 0.0390992 -2.65712 -1.61068 0.0393458 -2.54741 -1.65068 0.0278526 
-2.59965 -1.6804 0.0283703 -2.65451 -1.62077 0.0295003 -2.65445 -1.61063 0.0295649 
-2.57099 -1.67044 0.0186556 -2.59705 -1.68036 0.0188316 -2.6957 -1.65181 0.0199232 
-2.68103 -1.63118 0.0199208 -2.56842 -1.67039 0.00923117 -2.58089 -1.67007 0.00929328 
-2.70759 -1.66212 0.00995441 -2.67832 -1.63113 0.0100119 -2.59191 -1.69015 -0.000308732 
-2.6054 -1.6905 -0.000305275 -2.73611 -1.68428 -0.000211159 -2.72042 -1.6627 -8.00285e-05 
-2.6173 -1.69147 -0.00996778 -2.73333 -1.68423 -0.0103851 -2.74784 -1.68398 -0.0104415 
-2.60011 -1.68046 -0.0194379 -2.584 -1.67024 -0.0287985 -2.77438 -1.69591 -0.0314056 
-2.56791 -1.66002 -0.0380402 -2.75496 -1.68418 -0.0414251 -2.5529 -1.65058 -0.0471905 
-2.72212 -1.66294 -0.0509463 -2.52447 -1.63097 -0.0558153 -2.68832 -1.64098 -0.0601707 
-2.6593 -1.61025 -0.059219 -2.65666 -1.62047 -0.0691934 -2.571 -1.67001 -0.0764917 
-2.63951 -1.6102 -0.0785311 -2.66835 -1.62032 -0.0796073 -2.59617 -1.68108 -0.0872002 
-2.72534 -1.65175 -0.0921418 -2.57913 -1.67014 -0.0961589 -2.59348 -1.67102 -0.0967984 
-2.67732 -1.63038 -0.100252 -2.75446 -1.67405 -0.103926 -2.54977 -1.64987 -0.104332 
-2.57645 -1.66015 -0.105694 -2.71982 -1.66226 -0.112685 -2.75163 -1.674 -0.114305 
-2.53486 -1.64049 -0.113099 -2.53481 -1.63073 -0.113037 -2.79712 -1.71881 -0.127529 
-2.78063 -1.69629 -0.126514 -2.50665 -1.62101 -0.120925 -2.53224 -1.63068 -0.122461 
-2.81064 -1.73037 -0.139141 -2.79417 -1.70778 -0.138053 -2.50411 -1.62096 -0.130235 
-2.50406 -1.61131 -0.130173 -2.79134 -1.71871 -0.148717 -2.77489 -1.69619 -0.147557 
-2.48827 -1.61081 -0.138595 -2.48822 -1.60122 -0.138533 -2.724 -1.67294 -0.154728 
-2.72394 -1.66226 -0.15466 -2.53674 -1.62999 -0.151603 -2.52442 -1.61101 -0.150609 
-2.69144 -1.63076 -0.162658 -2.54743 -1.63993 -0.16215 -2.64377 -1.59921 -0.169231 
-2.55808 -1.64987 -0.172817 -2.64105 -1.59916 -0.179204 -2.61046 -1.69131 -0.187345 
-2.62408 -1.58909 -0.187903 -2.58031 -1.67052 -0.194601 -2.63561 -1.59906 -0.19915 
-2.60515 -1.70141 -0.2071 -2.60509 -1.69121 -0.207035 -2.66234 -1.61978 -0.212026 
-2.5882 -1.68041 -0.21541 -2.70422 -1.65123 -0.226737 -2.51866 -1.62967 -0.217957 
-2.74902 -1.68483 -0.242179 -2.52918 -1.62972 -0.228858 -2.5696 -1.65018 -0.233359 
-2.76228 -1.68525 -0.254452 -2.55387 -1.65029 -0.241601 -2.58009 -1.65999 -0.244623 
-2.74322 -1.67382 -0.263152 -2.5371 -1.63955 -0.249538 -2.55118 -1.64023 -0.251199 
-2.72421 -1.66239 -0.271706 -2.53448 -1.63951 -0.259136 -2.54854 -1.64018 -0.260862 
-2.69011 -1.6403 -0.278202 -2.55906 -1.66007 -0.272309 -2.57209 -1.65985 -0.273965 
-2.71845 -1.65146 -0.292534 -4.38103 0.129802 -0.493919 -2.54333 -1.6501 -0.280249 
-2.56943 -1.6598 -0.283746 -2.68443 -1.62952 -0.298746 -3.65726 -0.80362 -0.422425 
-3.65718 -0.788314 -0.422327 -3.65709 -0.773009 -0.422229 -3.62692 -0.751009 -0.418125 
-3.65692 -0.742397 -0.422034 -4.37652 0.0549668 -0.512469 -4.33004 0.12795 -0.505926 
-2.54059 -1.63002 -0.289784 -2.55359 -1.62975 -0.291559 -2.68162 -1.62947 -0.309053 
-3.68529 -0.811143 -0.441614 -3.6852 -0.795685 -0.441516 -3.65307 -0.772937 -0.436997 
-3.65298 -0.757632 -0.436899 -3.65289 -0.742326 -0.436801 -4.23729 -0.0747188 -0.512915 
-4.19418 -0.0564044 -0.506921 -4.15206 -0.0384978 -0.501066 -4.15196 -0.0208094 -0.500953 
-4.28089 -0.0019579 -0.518465 -4.28079 0.0163416 -0.518349 -4.3257 0.0354731 -0.524378 
-2.551 -1.63977 -0.301345 -3.64982 -0.910616 -0.452642 -3.64973 -0.895311 -0.452545 
-3.68166 -0.888356 -0.457021 -3.64956 -0.8647 -0.45235 -3.64947 -0.849394 -0.452252 
-3.71341 -0.849881 -0.461295 -3.71333 -0.834273 -0.461196 -3.68079 -0.733784 -0.456035 
-3.6807 -0.718327 -0.455936 -3.68061 -0.70287 -0.455838 -3.68053 -0.687413 -0.455739 
-3.68044 -0.671956 -0.455641 -3.68035 -0.656498 -0.455542 -3.91613 -0.303668 -0.486911 
-3.91604 -0.287083 -0.486805 -3.87897 -0.268029 -0.481457 -3.91585 -0.253914 -0.486594 
-3.95174 -0.239392 -0.491586 -3.95164 -0.222636 -0.491479 -3.95155 -0.205881 -0.491372 
-3.95145 -0.189126 -0.491266 -4.06717 -0.159513 -0.507463 -4.18998 -0.145758 -0.52475 
-4.14791 -0.126857 -0.518696 -4.10685 -0.108374 -0.512787 -4.10675 -0.0908799 -0.512675 
-4.10665 -0.0733857 -0.512564 -4.34637 3.65141 -0.525676 -2.54835 -1.63973 -0.311066 
[...]
POINT_DATA 10605
SCALARS z_coord float
LOOKUP_TABLE default
0.567778 0.561703 0.558529 0.555845 0.545835 0.530332 0.549537 0.53367 0.521191 
0.529773 0.539874 0.524305 0.51205 0.514135 0.52356 0.499948 0.520614 0.490861 
0.498614 0.479161 0.486164 0.475486 0.479765 0.474861 0.467434 0.457264 0.466391 
0.443077 0.454065 0.4291 0.444648 0.444711 0.422483 0.556229 0.556307 0.430036 
0.432768 0.408976 0.411298 0.544506 0.544583 0.54108 0.418262 0.420733 0.400096 
0.400155 0.525562 0.406463 0.517807 0.397212 0.516897 0.529864 0.542633 0.3879 
0.39507 0.504991 0.494534 0.390271 0.390334 0.375116 0.377372 0.485657 0.486432 
0.376283 0.378482 0.365975 0.473934 0.489405 0.362524 0.366921 0.358919 0.46221 
0.473597 0.35524 0.355302 0.349723 0.347754 0.443875 0.479952 0.480035 0.34801 
0.34183 0.336577 0.336637 0.435582 0.471322 0.475095 0.33651 0.332579 0.333374 
0.433554 0.314116 0.316037 0.324124 0.424814 0.303597 0.313062 0.412816 0.299632 
0.299692 0.30922 0.309282 0.394853 0.394931 0.395009 0.431265 0.292243 0.305306 
0.380224 0.386087 0.386166 0.386244 0.414881 0.28706 0.287121 0.376903 0.379923 
0.377061 0.380083 0.38946 0.408903 0.277136 0.281125 0.281187 0.379564 0.376664 
0.368069 0.365302 0.371078 0.371158 0.380059 0.395886 0.270223 0.270285 0.364196 
0.364278 0.36436 0.370339 0.37632 0.382697 0.38593 0.389296 0.265608 0.260122 
0.260186 0.251726 0.245898 0.250524 0.245277 0.240862 0.233106 0.224316 0.2312 
0.225059 0.216256 0.221538 0.220831 0.203192 0.209289 0.215078 0.193941 0.196283 
0.205362 0.190149 0.191339 0.195581 0.181804 0.186955 0.192959 0.172206 0.1782 
0.182785 0.158885 0.171444 0.172611 0.14781 0.158383 0.158448 0.145842 0.145072 
0.128658 0.137025 0.12018 0.127244 0.109725 0.118878 0.107683 0.0919356 0.0973637 
0.0835902 0.0840895 0.0876422 0.0747246 0.0792429 0.0646761 0.0689467 0.0563531 0.0564153 
0.0598805 0.0469287 0.0472101 0.049387 0.0375043 0.0379089 0.0390992 0.0393458 0.0278526 
0.0283703 0.0295003 0.0295649 0.0186556 0.0188316 0.0199232 0.0199208 0.00923117 0.00929328 
0.00995441 0.0100119 -0.000308732 -0.000305275 -0.000211159 -8.00285e-05 -0.00996778 -0.0103851 -0.0104415 
-0.0194379 -0.0287985 -0.0314056 -0.0380402 -0.0414251 -0.0471905 -0.0509463 -0.0558153 -0.0601707 
-0.059219 -0.0691934 -0.0764917 -0.0785311 -0.0796073 -0.0872002 -0.0921418 -0.0961589 -0.0967984 
-0.100252 -0.103926 -0.104332 -0.105694 -0.112685 -0.114305 -0.113099 -0.113037 -0.127529 
-0.126514 -0.120925 -0.122461 -0.139141 -0.138053 -0.130235 -0.130173 -0.148717 -0.147557 
-0.138595 -0.138533 -0.154728 -0.15466 -0.151603 -0.150609 -0.162658 -0.16215 -0.169231 
-0.172817 -0.179204 -0.187345 -0.187903 -0.194601 -0.19915 -0.2071 -0.207035 -0.212026 
-0.21541 -0.226737 -0.217957 -0.242179 -0.228858 -0.233359 -0.254452 -0.241601 -0.244623 
-0.263152 -0.249538 -0.251199 -0.271706 -0.259136 -0.260862 -0.278202 -0.272309 -0.273965 
-0.292534 -0.493919 -0.280249 -0.283746 -0.298746 -0.422425 -0.422327 -0.422229 -0.418125 
-0.422034 -0.512469 -0.505926 -0.289784 -0.291559 -0.309053 -0.441614 -0.441516 -0.436997 
-0.436899 -0.436801 -0.512915 -0.506921 -0.501066 -0.500953 -0.518465 -0.518349 -0.524378 
-0.301345 -0.452642 -0.452545 -0.457021 -0.45235 -0.452252 -0.461295 -0.461196 -0.456035 
-0.455936 -0.455838 -0.455739 -0.455641 -0.455542 -0.486911 -0.486805 -0.481457 -0.486594 
-0.491586 -0.491479 -0.491372 -0.491266 -0.507463 -0.52475 -0.518696 -0.512787 -0.512675 
-0.512564 -0.525676 -0.311066 -0.462983 -0.472033 -0.471934 -0.467117 -0.471737 -0.466922 
-0.47154 -0.461823 -0.47085 -0.470751 -0.470653 -0.465848 -0.461339 -0.497499 -0.497394 
-0.49217 -0.492067 -0.486993 -0.48689 -0.496871 -0.502172 -0.507325 -0.518463 -0.535875 
-0.535762 -0.529666 -0.523717 -0.535424 -0.536723 -0.536605 -0.530202 -0.523941 -0.320788 
-0.483446 -0.478774 -0.455772 -0.45157 -0.44737 -0.447279 -0.499618 -0.489524 -0.489424 
-0.504458 -0.531591 -0.525735 -0.520183 -0.531267 -0.519971 -0.514273 -0.51976 -0.514063 
-0.513959 -0.493162 -0.51375 -0.513645 -0.508257 -0.513436 -0.554585 -0.332586 -0.355154 
-0.509262 -0.504127 -0.509063 -0.50393 -0.508864 -0.498701 -0.498604 -0.498506 -0.493694 
-0.488727 -0.453045 -0.490599 -0.495187 -0.505081 -0.509977 -0.525794 -0.52569 -0.536501 
-0.547931 -0.530524 -0.536184 -0.547607 -0.54158 -0.530105 -0.535761 -0.529896 -0.541152 
-0.535444 -0.342367 -0.360517 -0.535011 -0.524223 -0.524123 -0.529203 -0.534605 -0.529002 
-0.518548 -0.518449 -0.518351 -0.498526 -0.507551 -0.488403 -0.50523 -0.520241 -0.525283 
-0.520042 -0.530544 -0.552926 -0.352148 -0.368295 -0.534546 -0.545113 -0.545012 -0.528919 
-0.518662 -0.55306 -0.576476 -0.582662 -0.570302 -0.55265 -0.535997 -0.535898 -0.52521 
-0.515022 -0.51013 -0.510035 -0.366721 -0.528567 -0.528472 -0.528377 -0.528282 -0.528187 
-0.551455 -0.568372 -0.580009 -0.562383 -0.540172 -0.534974 -0.534877 -0.53988 -0.534683 
-0.539684 -0.381614 -0.523055 -0.52771 -0.545531 -0.561711 -0.556014 -0.545244 -0.529931 
-0.539981 -0.555623 -0.550281 -0.544765 -0.386539 -0.389029 -0.399009 -0.398941 -0.525087 
-0.534699 -0.539457 -0.539365 -0.393827 -0.396382 -0.401555 -0.406631 -0.411982 -0.546103 
-0.543564 -0.548447 -0.548355 -0.558392 -0.400988 -0.406291 -0.411592 -0.411526 -0.413933 
-0.419417 -0.649198 -0.635978 -0.635876 -0.629313 -0.622752 -0.533097 -0.542452 -0.562378 
-0.424573 -0.424506 -0.424439 -0.424172 -0.424105 -0.424038 -0.426911 -0.652418 -0.652316 
-0.652213 -0.645385 -0.638661 -0.645182 -0.63846 -0.555896 -0.560836 -0.576217 -0.434678 
-0.434611 -0.434545 -0.428393 -0.434144 -0.439893 -0.654269 -0.654068 -0.660746 -0.64111 
-0.550016 -0.569339 -0.569251 -0.569162 -0.438695 -0.438629 -0.438564 -0.432751 -0.432686 
-0.438366 -0.567873 -0.562923 -0.562838 -0.566092 -0.547569 -0.574291 -0.569336 -0.569254 
-0.577144 -0.577063 -0.572221 -0.557781 -0.557727 -0.53961 -0.539556 -0.551166 -0.54517 
-0.575116 -0.581909 -0.581852 -0.581794 -0.581737 -0.58168 -0.588157 -0.586543 -0.589957 
-0.593055 -0.596469 -0.59294 -0.589728 -0.544641 -0.539315 -0.53366 -0.533611 -0.51715 
-0.54687 -0.552168 -0.552117 -0.552066 -0.524414 -0.559897 -0.559846 -0.571652 -0.586505 
-0.589839 -0.519215 -0.553199 -0.561679 -0.55305 -0.547511 -0.545061 -0.542268 -0.537074 
-0.531881 -0.524289 -0.517041 -0.521795 -0.524148 -0.521701 -0.519255 -0.519208 -0.52396 
-0.54986 -0.555027 -0.546788 -0.541526 -0.5314 -0.526489 -0.531306 -0.533691 -0.526349 
-0.519008 -0.514099 -0.526209 0.302448 0.288911 0.27506 0.258146 0.236979 0.220066 
0.205241 -0.524064 -0.516203 -0.53124 -0.526395 -0.518462 -0.525122 -0.517319 -0.512946 
0.534681 0.527182 0.517126 0.507147 0.502207 -0.563166 -0.518234 -0.520719 0.502599 
0.50509 0.494696 0.479756 0.472141 0.473977 -0.557623 -0.513914 -0.529753 0.503134 
0.49275 0.482709 0.479799 0.472021 -0.536654 -0.524244 0.471733 0.466404 0.453504 
0.447894 0.444673 -0.518346 -0.559992 0.449191 0.450688 -0.515828 -0.507565 -0.510196 
-0.569411 0.424557 0.32008 0.313583 -0.652955 -0.514731 -0.564868 -0.585033 -0.582939 
-0.591975 -0.608767 -0.606113 -0.603431 0.376188 0.337998 0.308493 -0.650069 -0.510014 
-0.570809 -0.591359 -0.592772 -0.598084 -0.603284 -0.61232 -0.613348 0.317597 0.309518 
-0.640263 -0.659607 -0.495728 -0.569414 -0.574712 -0.591431 -0.59643 0.339804 0.330088 
0.320459 0.314015 0.307485 -0.6353 -0.624641 -0.643559 -0.567991 -0.566003 -0.603491 
-0.612096 0.315225 0.308594 -0.632534 -0.530071 -0.491593 -0.555694 -0.56822 -0.602185 
-0.606904 1.1155 1.08866 1.05181 0.30045 0.303127 -0.63589 -0.558161 -0.549137 
-0.551022 -0.559679 -0.598003 -0.599215 1.10358 1.05418 1.03887 1.03424 1.00825 
0.982863 0.992766 0.31424 0.300149 0.291333 0.279369 0.269202 0.264884 0.258892 
-0.470615 -0.547942 -0.567291 -0.572656 -0.596484 -0.60138 1.12382 1.08238 1.05419 
1.03402 1.00542 0.966671 0.271483 -0.466809 -0.460157 -0.460252 -0.460214 -0.543308 
-0.598662 -0.600085 0.235227 0.231449 0.2261 -0.635037 -0.623848 -0.453042 -0.450182 
-0.552323 -0.59368 -0.594664 0.225386 0.22007 -0.455313 -0.443248 -0.452512 -0.565115 
-0.588336 -0.593308 0.212175 0.20407 0.192548 0.183344 0.176097 -0.451535 -0.539288 
-0.544597 -0.594224 -0.595422 0.155945 0.145778 0.134339 0.127129 -0.460209 -0.460191 
-0.544839 -0.550187 -0.600138 -0.60487 0.158785 0.149021 0.127415 -0.452805 -0.459514 
-0.462629 -0.550698 -0.555803 -0.605763 -0.610849 0.11605 0.0875366 0.0775119 -0.44192 
-0.448676 -0.455293 -0.54586 -0.611728 -0.613002 0.116644 0.106682 0.0962228 0.0863298 
0.0764369 -0.434974 -0.447889 -0.457782 -0.538134 -0.617719 -0.615154 -0.57124 -0.427618 
-0.431166 -0.447274 -0.519862 -0.521926 -0.622037 -0.296706 -0.304897 -0.315436 -0.438661 
-0.420262 -0.418129 -0.524041 -0.624296 -0.277282 -0.291521 -0.303794 -0.369754 -0.384004 
-0.40696 -0.413909 -0.414724 -0.524141 -0.532648 -0.299556 -0.307266 -0.52963 -0.541304 
-0.304322 -0.309739 -0.538225 -0.546882 -0.61503 -0.619963 -0.322039 -0.547151 -0.552486 
-0.621337 -0.622154 -0.296066 -0.306239 -0.316412 -0.324056 -0.334156 -0.438414 -0.449998 
-0.545792 -0.551158 -0.619437 -0.620492 -0.323346 -0.326249 -0.331542 -0.347025 -0.446316 
-0.440876 -0.548051 -0.549775 -0.611395 -0.605212 -0.262011 -0.264377 -0.27548 -0.288999 
-0.302691 -0.438085 -0.447719 -0.450888 -0.445003 -0.451293 -0.4574 -0.469298 -0.484257 
-0.545002 -0.603758 -0.308588 -0.269577 -0.262753 -0.271455 -0.280114 -0.288493 -0.296838 
-0.312442 -0.428444 -0.437828 -0.435299 -0.441575 -0.447738 -0.46885 -0.481038 -0.490186 
-0.499334 -0.548969 -0.547206 -0.301877 -0.310125 -0.318218 -0.331358 -0.341974 -0.430804 
-0.502473 -0.504857 -0.517591 -0.546022 -0.61569 -0.344645 -0.352486 -0.365878 -0.379425 
-0.393294 -0.44463 -0.541411 -0.621695 -0.618858 0.931913 0.934857 -0.362071 -0.361355 
-0.363677 -0.368549 -0.382115 -0.392809 -0.446842 -0.457083 -0.546989 -0.623899 0.922706 
0.882436 0.869507 -0.423595 -0.420933 -0.463036 -0.469738 -0.549167 -0.622262 0.905254 
0.87255 0.841663 0.811925 0.795143 -0.465577 -0.475676 -0.551345 -0.628306 0.764769 
0.759655 0.765085 -0.500053 -0.509103 -0.464703 -0.495538 -0.498416 -0.504877 -0.505646 
-0.501451 -0.500756 -0.503263 -0.499106 -0.492415 -0.494799 -0.503206 -0.532859 -0.548267 
-0.612989 -0.621749 0.715319 0.709832 0.709233 0.697914 0.677616 0.667077 0.661185 
0.655138 0.631218 -0.530933 -0.517901 -0.563674 -0.467108 -0.483469 -0.509981 -0.508966 
-0.497897 -0.490757 -0.538386 -0.553871 -0.611417 -0.623953 0.707841 0.669248 0.672727 
0.662554 0.639362 0.633583 0.619439 0.605433 0.59554 -0.507228 -0.561747 -0.552678 
-0.523099 -0.456714 -0.469253 -0.494927 -0.50807 -0.500243 -0.496239 -0.537189 -0.549221 
-0.62529 1.01545 0.622347 0.608808 -0.433069 -0.529471 -0.544805 -0.643995 -0.407582 
-0.531597 -0.553576 -0.407155 -0.417186 -0.533724 -0.552288 0.343783 0.324746 -0.426008 
-0.527396 -0.616477 -0.617451 0.317903 0.376697 -0.434901 -0.534139 -0.5363 -0.615852 
0.333668 0.32649 0.322942 0.325227 0.380927 -0.477004 -0.454482 -0.543016 -0.548375 
-0.621858 0.35349 0.340431 0.325696 0.316828 -0.488046 -0.538494 -0.543736 -0.620234 
0.347193 0.334274 0.323465 0.314597 0.281172 0.265446 0.257538 -0.527848 -0.503572 
-0.542759 -0.622424 0.350871 0.337812 0.151764 0.138296 -0.459005 -0.459149 -0.541471 
-0.584668 -0.60893 -0.613902 -0.618763 -0.619709 -0.620761 0.346586 0.335525 0.168801 
0.15914 0.155796 0.14723 0.133887 0.121441 -0.45819 -0.461708 -0.540157 -0.579654 
-0.607223 -0.608414 -0.61723 -0.629862 -0.622939 0.353433 0.223256 0.0917323 -0.54575 
-0.623225 0.349134 0.203928 0.195663 -0.460002 -0.466579 -0.534254 -0.535956 -0.621665 
-0.630482 0.360018 0.346847 0.211176 0.193584 0.187159 0.0179549 0.0056656 -0.449508 
-0.455855 -0.459233 -0.533017 -0.534928 -0.612158 -0.620815 0.357702 0.346529 0.199769 
-0.45207 -0.455291 -0.461611 -0.470996 -0.541678 -0.547117 -0.614335 -0.622992 0.336408 
0.223618 0.21422 0.205955 0.195709 -0.0843694 -0.0984309 -0.454477 -0.457667 -0.463972 
-0.473356 -0.537297 -0.616513 -0.62517 0.979454 0.952662 0.955892 0.336104 0.22377 
-0.463177 -0.469285 -0.475273 -0.528797 -0.530931 -0.539437 -0.611327 -0.615992 0.954804 
0.943787 0.939869 0.935779 0.945716 0.941446 0.353844 0.342825 0.219436 -0.474532 
-0.480568 -0.48966 -0.533698 -0.528929 -0.530962 -0.53307 -0.596364 -0.604922 -0.609625 
-0.610644 0.954287 0.942835 0.924223 0.906129 0.359825 0.344504 -0.486517 -0.485981 
-0.488765 -0.525659 -0.527821 -0.530055 -0.53521 -0.595945 -0.604352 -0.605573 0.989799 
0.935639 0.896581 0.892017 0.88728 0.882694 0.891933 0.35533 0.342217 0.221301 
0.213084 -0.500073 -0.512418 -0.518145 -0.530601 -0.539693 -0.591039 0.954505 0.932736 
0.900456 0.895784 0.891265 0.886566 0.902941 0.349021 0.33993 0.207893 -0.512146 
-0.518027 -0.523797 -0.536323 -0.545471 0.886031 0.874299 0.876099 0.818691 0.839103 
0.348717 -0.583423 0.830878 0.819051 0.813492 0.7071 0.342479 0.331531 -0.560707 
-0.55907 -0.567197 0.802459 0.803397 0.79176 0.687938 0.661536 0.340206 0.333068 
-0.569522 -0.574466 -0.594601 0.777195 0.748013 0.720461 0.709358 0.708703 0.697428 
0.6811 0.650543 0.635298 0.339873 0.330781 0.214904 -0.578385 -0.576557 0.632587 
0.33566 0.214999 -0.57712 -0.578648 0.333387 0.322495 -0.574185 -0.575831 0.327318 
0.322078 -0.562974 0.325073 0.317977 0.215873 -0.575568 -0.580589 -0.578438 0.346621 
0.333678 0.212833 -0.581343 -0.575759 0.953326 0.344334 0.331419 0.209814 -0.573003 
-0.57088 0.993074 1.04925 0.344001 0.331058 0.207803 -0.582974 -0.580587 -0.578478 
-0.580039 1.11406 0.33976 0.328785 0.206768 -0.581391 -0.594142 0.335548 0.322773 
0.20966 0.203782 -0.583622 -0.596387 0.342311 0.208668 0.201771 -0.593564 -0.602544 
0.341991 0.20667 0.19976 -0.599692 -0.604803 0.989683 0.337765 0.202721 0.194861 
-0.598082 -0.603122 0.792988 0.774689 0.762668 0.738945 0.34849 0.339342 0.209611 
-0.586167 -0.595203 0.76551 0.759645 0.741667 0.350274 0.341009 0.208619 -0.58084 
-0.589764 1.05313 1.07729 1.14646 0.781167 0.356356 0.340722 0.189722 -0.586899 
-0.588139 1.03206 1.0106 1.00676 1.05682 1.06243 0.974254 0.360527 0.344459 
-0.581501 -0.590369 1.01948 1.01999 1.04256 0.93758 0.392205 0.374792 -0.580186 
-0.589002 0.935142 0.924448 0.765935 0.392309 0.367765 -0.591219 0.959868 0.935124 
0.750457 0.384652 0.365309 -0.577178 -0.597062 1.02465 1.00536 0.978964 0.953283 
0.747408 0.389646 0.362853 0.195695 -0.581556 1.02174 0.994757 0.983395 0.987114 
0.738478 0.377168 0.353735 0.169997 0.161346 -0.593852 -0.595315 1.1396 1.04689 
0.76555 0.747475 0.729598 0.397143 0.389602 0.372242 0.349124 0.167229 0.158705 
-0.589875 1.13959 1.13674 1.04394 0.756471 0.73852 0.39193 0.384775 0.37254 
0.30891 0.296362 0.28727 0.279739 0.270591 0.163789 0.155284 -0.59599 1.12826 
1.12547 1.11712 1.08668 1.04919 0.759452 0.729873 0.392083 0.384685 0.370101 
0.308441 0.290759 0.280177 0.271253 0.161074 0.151335 -0.594364 1.2213 1.17172 
1.10489 0.738724 0.710023 0.411697 0.399391 0.394455 0.387068 0.307942 0.291788 
0.274878 0.266062 -0.59271 1.20882 1.15985 1.07525 1.02243 0.666385 0.447235 
0.437204 0.429938 0.414447 0.409738 0.293535 0.275332 0.204525 0.17504 0.16796 
-0.573697 -0.582513 1.18692 1.14803 1.07225 1.01169 0.654275 0.459676 0.440488 
0.430315 0.409263 0.401979 0.286403 0.276151 0.172331 -0.568578 -0.588304 1.18399 
1.15409 1.05265 1.00137 0.651585 0.449283 0.448102 0.285857 0.27396 0.170364 
-0.574303 -0.59442 1.18106 1.16011 1.04142 1.00598 0.66297 0.441121 0.436815 
0.280478 0.27177 0.170689 -0.587741 -0.600564 1.16875 1.1572 1.03849 1.00312 
0.759346 0.71859 0.455456 0.451262 0.447173 0.370809 0.278287 0.268126 0.168691 
-0.601557 -0.606736 1.16584 1.16357 0.992866 0.774931 0.744302 0.453 0.389527 
0.370686 0.263189 0.15664 -0.174355 -0.180568 -0.198932 -0.210179 -0.607716 1.13661 
1.16065 0.778094 0.753343 0.462187 0.384674 0.361704 0.344526 0.25961 0.161736 
0.153958 -0.17652 -0.186386 -0.210748 -0.215188 -0.613903 1.13377 1.14849 0.774968 
0.750268 0.479726 0.472751 0.462652 0.39927 0.377601 0.272965 0.265976 0.25747 
0.159779 0.150663 -0.181129 -0.197905 -0.211249 -0.210124 -0.214534 -0.610047 -0.615292 
1.11404 1.15479 0.765629 0.741084 0.48031 0.47344 0.463267 0.39189 0.272343 
0.263837 0.255331 0.149351 -0.182084 -0.195996 -0.215126 -0.221262 -0.221158 -0.60422 
-0.609329 1.13653 1.16104 0.744227 0.726377 0.481053 0.382054 0.361243 0.300103 
0.283209 0.271694 0.260258 0.146791 -0.169238 -0.176802 -0.186758 -0.215962 -0.22483 
-0.602441 -0.607773 1.1425 1.16724 0.717826 0.488667 0.375044 0.358882 0.343239 
0.332154 0.323006 0.31032 0.29285 0.28409 -0.170284 -0.176573 -0.213826 -0.222535 
-0.578242 -0.602302 1.15765 1.15514 0.714851 0.352259 0.337078 0.324252 0.31165 
0.302782 0.292346 0.28353 -0.171303 -0.177617 -0.217446 -0.227811 -0.587851 -0.608475 
1.13087 0.711875 0.443941 0.431837 0.42493 0.305964 0.293989 0.169449 -0.174665 
-0.180902 -0.24039 -0.593954 -0.610762 1.12803 0.708901 0.438906 0.429461 0.420016 
0.413033 0.291812 -0.179349 -0.186813 -0.241062 -0.600085 -0.609121 1.1336 0.717752 
0.711382 0.439158 0.432405 0.413265 0.39875 0.386978 0.375327 0.366002 0.350393 
0.333498 0.319077 0.288053 -0.171496 -0.225648 -0.234464 -0.594586 -0.615336 1.14835 
0.998328 0.987053 0.720305 0.714063 0.454675 0.289024 0.169751 -0.170186 -0.180014 
-0.186228 -0.216071 -0.226261 -0.235021 -0.597925 -0.603284 1.14545 1.05478 0.711802 
0.71104 0.458123 0.290073 0.167763 -0.172351 -0.180956 -0.188381 -0.215377 -0.22697 
-0.235679 -0.60024 -0.605585 1.13378 1.10751 1.06003 0.725765 0.708016 0.525681 
0.293352 0.286185 0.167389 -0.174515 -0.226146 -0.237869 -0.596269 1.1309 1.1327 
1.06561 0.722717 0.699387 0.515768 0.279394 0.165378 0.155884 -0.175571 -0.226917 
-0.236916 -0.587167 -0.594194 -0.589253 1.13674 1.13892 1.06258 0.713989 0.69105 
0.485982 0.287403 0.274324 0.163367 0.153193 -0.1765 -0.235075 -0.247138 -0.581884 
-0.589935 -0.587801 1.13383 1.10721 1.03472 0.728739 0.503421 0.275065 0.159811 
0.149899 -0.164932 -0.171318 -0.240501 -0.252831 -0.587688 -0.595839 1.16328 1.06856 
1.0155 0.719962 0.541567 0.522569 0.270044 0.157098 0.147943 -0.167109 -0.174569 
-0.239483 -0.253344 -0.597447 -0.591442 1.16036 1.05696 1.00486 0.705779 0.578495 
0.571271 0.25536 0.169321 0.162981 -0.169287 -0.179154 -0.246665 -0.593435 -0.598584 
-0.584064 -0.579654 1.15743 1.13666 1.04578 1.0097 0.702803 0.580052 0.255847 
0.167364 0.160332 -0.172637 -0.181345 -0.24389 -0.591863 -0.604744 -0.59935 -0.594046 
1.1545 1.07151 0.699828 0.568179 0.565369 0.257801 0.165408 0.158365 -0.177296 
-0.247825 -0.267229 -0.597981 -0.603102 -0.597973 -0.592958 1.1424 1.13086 1.0352 
1.01543 0.696853 0.569713 0.553734 0.165677 0.157049 -0.182009 -0.237978 -0.604127 
-0.60929 -0.606366 -0.594788 1.1395 1.12795 1.00095 0.989679 0.699239 0.566785 
0.534735 0.164446 0.155786 -0.182942 -0.241741 -0.614188 -0.619449 -0.598434 -0.593307 
1.14572 0.990683 0.979493 0.731637 0.719518 0.568247 0.531921 0.178339 0.169604 
-0.185173 -0.191383 -0.245662 -0.596997 -0.605921 -0.603574 -0.592175 1.14279 0.995282 
0.991334 0.734591 0.716469 0.56093 0.506784 0.170029 -0.184827 -0.189721 -0.246148 
-0.577591 -0.582896 -0.60544 -0.596947 1.13618 1.13357 0.992445 0.98117 0.731516 
0.71342 0.581278 0.582949 0.457257 0.447157 0.431432 0.416154 0.398802 0.37288 
0.363676 0.176044 0.168774 -0.167217 -0.17827 -0.250098 -0.583639 -0.585114 -0.610609 
-0.592828 1.16021 1.15772 0.982239 0.978333 0.722491 0.704768 0.582857 0.575538 
0.344192 0.337147 0.322473 0.174822 0.166742 -0.176641 -0.186933 -0.252316 -0.585884 
-0.59092 -0.607268 -0.605026 1.14806 1.15477 1.02927 0.702657 0.69083 0.579906 
0.568174 0.347865 0.331032 0.322108 0.172 0.164709 -0.18144 -0.185228 -0.249484 
-0.59582 -0.604856 -0.599443 -0.60362 1.16355 1.15182 0.694275 0.687855 0.576955 
0.565223 0.499239 0.471374 0.319863 0.169979 0.161942 -0.181159 -0.184881 -0.232801 
-0.241406 -0.609672 -0.607129 -0.59192 -0.602194 1.1606 1.15795 1.05631 0.702089 
0.68488 0.569568 0.562272 0.492965 0.478608 0.332221 0.314085 0.167957 -0.169564 
-0.239646 -0.243571 -0.616159 -0.609402 1.13935 1.14592 1.03671 0.693731 0.681905 