# vtk DataFile Version 4.2
vtk output
ASCII
DATASET POLYDATA
POINTS 6890 float
-3.30468 -2.18607 0.705649 -3.30461 -2.17382 0.705727 -3.32688 -2.17801 0.711194 
-3.32681 -2.16567 0.711273 -3.3461 -2.21927 0.704426 -3.36946 -2.22419 0.710067 
-3.36623 -2.23667 0.697894 -3.36616 -2.22413 0.697973 -3.38632 -2.25407 0.691169 
-3.38624 -2.24143 0.691249 -3.35964 -2.23655 0.673706 -3.35957 -2.22402 0.673786 
-2.34569 1.60878 0.468503 -2.35556 1.62558 0.470918 -2.37646 1.65196 0.475957 
-3.37967 -2.25395 0.66679 -3.40293 -2.25867 0.672048 -2.35342 1.61728 0.462825 
-2.36438 1.63507 0.465457 -3.47385 -2.30094 0.676058 -2.28364 1.45451 0.438418 
-2.2836 1.46255 0.43847 -2.27475 1.46349 0.436498 -2.27471 1.47149 0.436549 
-2.29313 1.53516 0.441158 -2.30298 1.55157 0.443488 -2.30294 1.5597 0.443539 
-2.33148 1.59215 0.450175 -2.35123 1.61732 0.454786 -3.47041 -2.30088 0.663466 
-2.27265 1.46352 0.428778 -2.26272 1.46349 0.426594 -2.26254 1.49532 0.426797 
-2.26249 1.50328 0.426847 -2.27233 1.51953 0.429135 -3.44152 -2.28192 0.645518 
-2.24311 1.44135 0.414964 -2.24306 1.44924 0.415014 -2.25166 1.48806 0.417167 
-2.25162 1.49598 0.417217 -2.25157 1.5039 0.417268 -3.43812 -2.28186 0.633032 
-2.22231 1.44189 0.403392 -2.22227 1.44969 0.403442 -2.23099 1.46476 0.405406 
-3.41041 -2.26372 0.615623 -2.22026 1.44193 0.395864 -2.22898 1.45695 0.397792 
-2.22017 1.45753 0.395964 -3.43131 -2.28174 0.608059 -2.19196 1.42042 0.382814 
-2.20067 1.43533 0.384704 -3.40366 -2.2636 0.590851 -3.37599 -2.23273 0.573926 
-3.40014 -2.23787 0.578629 -3.34955 -2.21552 0.557326 -3.34948 -2.20288 0.557406 
-3.34623 -2.21546 0.545136 -3.34616 -2.20282 0.545217 -3.31987 -2.19824 0.528824 
-3.3198 -2.18571 0.528904 -3.33959 -2.21534 0.520757 -3.33952 -2.20271 0.520838 
-3.31328 -2.19813 0.504637 -3.31321 -2.18559 0.504717 -3.28702 -2.18092 0.488708 
-3.28695 -2.16848 0.488787 -3.30669 -2.19801 0.480449 -3.28368 -2.16842 0.47679 
-3.28034 -2.15593 0.464872 -3.30318 -2.16035 0.468596 -3.27707 -2.15587 0.452874 
-3.277 -2.14344 0.452953 -3.25204 -2.13967 0.437589 -3.27373 -2.14338 0.440956 
-3.22705 -2.12347 0.422486 -3.24872 -2.12727 0.425761 -3.22383 -2.12341 0.410671 
-3.24548 -2.12721 0.413855 -2.38266 1.5081 0.312081 -2.35139 1.49207 0.307327 
-2.3212 1.47663 0.302737 -2.27164 1.44544 0.29516 -2.2533 1.4389 0.292391 
-2.23496 1.43219 0.289622 -2.22522 1.43232 0.288179 -2.19827 1.4183 0.284079 
-2.18962 1.41907 0.282801 -2.18957 1.42687 0.282851 -2.17231 1.42038 0.280243 
-2.14751 1.40745 0.276471 -2.14747 1.41506 0.27652 -2.13882 1.41542 0.275239 
-2.13124 1.41661 0.274124 -2.11506 1.4104 0.271678 -3.22061 -2.12335 0.398856 
-3.22054 -2.11111 0.398934 -2.25122 1.43085 0.284542 -2.22322 1.41644 0.280399 
-2.21457 1.41744 0.279159 -2.19625 1.4105 0.276465 -2.17901 1.40427 0.273932 
-2.17036 1.40496 0.27269 -2.17892 1.4198 0.274031 -2.17888 1.42756 0.274081 
-2.14551 1.40748 0.269122 -2.12934 1.40156 0.266746 -2.1293 1.4091 0.266795 
-2.12066 1.40935 0.265549 -2.10449 1.4031 0.263172 -2.46761 1.5151 0.307988 
-2.445 1.50697 0.30476 -2.42239 1.49865 0.30153 -2.11113 1.41047 0.257253 
-2.1025 1.41057 0.256044 -2.09494 1.41152 0.254991 -3.19239 -2.08279 0.372551 
-2.10912 1.41798 0.250089 -2.1005 1.41804 0.248916 -2.09295 1.41896 0.247895 
-2.0854 1.41981 0.246873 -2.0551 1.44427 0.242922 -3.18919 -2.08274 0.360828 
-2.09859 1.41064 0.241693 -2.08355 1.40511 0.239668 -2.07601 1.40596 0.238678 
-2.06847 1.40674 0.237688 -2.06069 1.45109 0.236976 -2.04566 1.44472 0.234946 
-2.04562 1.45193 0.234992 -2.07408 1.40599 0.231598 -2.06655 1.40678 0.230641 
-2.05902 1.40749 0.229682 -2.05149 1.40815 0.228724 -2.05145 1.41538 0.22877 
-2.05141 1.42262 0.228816 -2.05137 1.42986 0.228862 -2.05133 1.4371 0.228908 
-2.07215 1.40603 0.224519 -2.06463 1.40681 0.223593 -2.04963 1.40094 0.221694 
-2.04959 1.40818 0.22174 -2.04207 1.40877 0.220813 -2.04951 1.42266 0.221832 
-2.04199 1.42318 0.220905 -2.04195 1.43038 0.220951 -1.98754 1.32043 0.147763 
-1.95193 1.29125 0.138134 -1.94556 1.29264 0.137647 -4.23428 1.61844 0.302255 
-1.97021 1.29466 0.13299 -1.95648 1.28984 0.131943 -1.94379 1.28581 0.13098 
-1.93638 1.28625 0.130436 -4.4724 -2.95507 0.271655 -4.4723 -2.93698 0.27177 
-3.8593 1.48866 0.259089 -3.7611 1.4602 0.252067 -3.73043 1.46139 0.249941 
-3.69975 1.4623 0.247814 -1.96101 1.28837 0.125698 -1.94834 1.28443 0.12479 
-1.93462 1.27945 0.123802 -1.93458 1.28628 0.123845 -4.56183 -2.98597 0.260143 
-1.99395 1.304 0.121369 -1.97289 1.29314 0.11992 -1.95288 1.28298 0.118544 
-1.94653 1.28446 0.11814 -3.51925 1.41136 0.208476 -3.49181 1.41243 0.206808 
-1.99948 1.30316 0.114958 -1.98578 1.29867 0.114092 -1.95739 1.28149 0.112244 
-3.51566 1.39746 0.194914 -3.46197 1.38637 0.191791 -3.4619 1.40009 0.191878 
-1.97662 1.28541 0.10676 -1.97658 1.29245 0.106805 -1.9692 1.2932 0.106391 
-3.43204 1.38776 0.177176 -3.40677 1.38934 0.17586 -2.02526 1.29176 0.102658 
-2.01055 1.28685 0.101852 -1.99584 1.28181 0.101046 -1.9958 1.28894 0.101092 
-1.98214 1.28458 0.100346 -1.97477 1.28544 0.099964 -3.4033 1.37591 0.162757 
-3.37806 1.37739 0.161549 -2.03067 1.29785 0.0960355 -2.01598 1.29298 0.0952945 
-2.00129 1.28796 0.0945526 -1.99392 1.28898 0.0942041 -1.98656 1.28992 0.0938552 
-1.98024 1.2917 0.0935623 -3.39975 1.37598 0.14974 -3.37454 1.37745 0.148642 
-2.04347 1.29526 0.0896169 -2.03611 1.29661 0.0893026 -4.46002 1.51357 0.17979 
-4.45992 1.53187 0.179907 -3.42131 1.38795 0.137797 -3.37102 1.37751 0.135735 
-2.04884 1.30129 0.0828345 -2.04149 1.30267 0.0825522 -4.36416 1.49663 0.158807 
-3.44385 1.40041 0.125674 -2.03229 1.28934 0.0750964 -4.2728 1.463 0.138642 
-3.46633 1.41288 0.113323 -2.03036 1.28937 0.0680167 -2.00845 1.27863 0.0672673 
-4.14515 1.41516 0.118171 -4.06788 1.40169 0.116024 -3.46269 1.41294 0.0999683 
-2.02115 1.28342 0.0607038 -2.00654 1.27867 0.0602836 -4.10111 1.3998 0.100848 
-3.98853 1.37218 0.0981577 -3.45905 1.41301 0.0866133 -2.01923 1.28345 0.0536561 
-2.00464 1.2787 0.0532999 -4.02076 1.37023 0.0831274 -3.94889 1.35829 0.0817601 
-3.42942 1.40067 0.0727114 -2.00996 1.29203 0.0465319 -1.99539 1.28712 0.0462386 
-1.98809 1.2882 0.0461145 -1.96729 1.27777 0.0456738 -1.95999 1.27866 0.0455485 
-1.95269 1.27948 0.0454227 -1.93916 1.27486 0.04515 -4.21303 1.41247 0.0702369 
-4.13188 1.39846 0.0690445 -3.39984 1.38833 0.0590381 -3.34991 1.37789 0.0582926 
-2.00805 1.29207 0.0395162 -1.9935 1.28715 0.0392869 -1.9862 1.28823 0.0391947 
-1.96543 1.27781 0.0388454 -1.95088 1.2725 0.0386136 -1.94462 1.27417 0.0385395 
-1.93733 1.2749 0.038445 -4.168 1.39708 0.053069 -4.12743 1.39854 0.052705 
-3.34647 1.36457 0.0453003 -3.3215 1.36593 0.0450791 -1.95624 1.28577 0.0320007 
-1.9355 1.27493 0.0317401 -1.92925 1.27648 0.0316926 -4.20393 1.41263 0.0368448 
-4.12297 1.39862 0.0363655 -3.34295 1.36463 0.0323932 -3.29418 1.35446 0.0320933 
-1.93364 1.28191 0.0250795 -1.92739 1.28344 0.0250592 -1.92115 1.28491 0.0250386 
-1.90128 1.30846 0.0250938 -1.89504 1.30962 0.0250712 -4.159 1.39724 0.0200334 
-4.11852 1.3987 0.0200259 -3.2908 1.34137 0.0193171 -3.26796 1.3435 0.0193213 
-1.93904 1.28823 0.0184177 -1.93177 1.28889 0.0184189 -1.92554 1.29039 0.0184259 
-1.89949 1.3085 0.0185306 -1.89945 1.3153 0.0185739 -1.90561 1.32778 0.0186561 
-4.1545 1.39732 0.00351561 -4.11407 1.39878 0.00368644 -3.24083 1.3191 0.0066687 
-3.19528 1.31 0.0067928 -1.93716 1.29525 0.0117253 -1.9299 1.29587 0.0117583 
-1.90389 1.31415 0.0119783 -4.10971 1.38192 -0.0127611 -4.07036 1.38359 -0.0124194 
-3.21471 1.30824 -0.00569587 -3.19193 1.31005 -0.00549267 -1.94872 1.30703 0.00495012 
-1.92808 1.29591 0.00505338 -1.92784 1.3376 0.00531922 -4.10526 1.382 -0.0291007 
-4.10516 1.39893 -0.0289927 -3.167 1.28696 -0.0176468 -3.14527 1.28907 -0.0173545 
-1.94686 1.30706 -0.00184621 -1.94682 1.31411 -0.0018013 -4.1008 1.38208 -0.0454402 
-4.10071 1.39901 -0.0453322 -1.95212 1.32758 -0.008637 -1.952 1.34881 -0.00850161 
-1.93758 1.34284 -0.00828971 -4.13649 1.39764 -0.0625555 -4.09625 1.39909 -0.0616717 
-1.95026 1.32761 -0.0154652 -1.93578 1.33586 -0.0150987 -1.9224 1.33075 -0.0148398 
-4.17207 1.4132 -0.0800274 -4.05274 1.38391 -0.0770828 -1.95455 1.33312 -0.0224207 
-1.92778 1.33033 -0.0217366 -4.20859 1.42916 -0.0978847 -4.08735 1.39925 -0.0943507 
-1.95268 1.33316 -0.0292764 -3.43941 -2.00831 -0.177133 -3.41268 -1.97708 -0.1754 
-3.43574 -2.00825 -0.190607 -3.40904 -1.97702 -0.188755 -3.4054 -1.97695 -0.20211 
-3.05856 -1.93681 -0.190709 -2.95756 -1.90157 -0.194882 -2.95749 -1.88978 -0.194807 
-2.97682 -1.89204 -0.196289 -2.99614 -1.89413 -0.197771 -3.2284 -1.9834 -0.215958 
-3.1171 -1.89385 -0.206964 -3.11703 -1.88132 -0.206884 -3.18226 -1.91309 -0.212032 
-3.22811 -1.9312 -0.215625 -3.34741 -1.99805 -0.225092 -3.29836 -1.95189 -0.221088 
-3.2738 -1.92235 -0.219046 -3.22781 -1.879 -0.215292 -2.8994 -1.86106 -0.201581 
-2.93604 -1.87632 -0.204624 -2.97369 -1.89199 -0.207752 -2.97362 -1.88011 -0.207676 
-3.24732 -1.98573 -0.230365 -3.24724 -1.97258 -0.230281 -3.27061 -1.97534 -0.232181 
-3.31945 -1.99508 -0.236235 -3.27046 -1.94882 -0.232012 -3.22453 -1.90504 -0.22805 
-3.1786 -1.86168 -0.224091 -3.02846 -1.90979 -0.224254 -3.11086 -1.95641 -0.231551 
-3.19834 -2.00586 -0.239298 -3.19827 -1.99291 -0.239215 -3.13203 -1.93374 -0.233221 
-3.06594 -1.93894 -0.239803 -3.06587 -1.9266 -0.239725 -3.1502 -1.97408 -0.247579 
-3.02506 -1.87328 -0.235745 -3.28262 1.24077 -0.37509 -3.2586 1.24358 -0.371791 
-3.23457 1.24617 -0.368494 -3.12069 1.22006 -0.353078 -4.09837 1.39613 -0.5032 
-4.34923 1.40392 -0.576164 -4.21021 1.35481 -0.573628 -4.249 1.38923 -0.597884 
-3.92635 -1.9813 -0.63203 -4.00265 -2.00651 -0.645883 -4.07643 -2.04949 -0.677085 
-3.01356 1.26634 -0.501256 -2.93088 1.2265 -0.497349 -2.90909 1.2172 -0.505232 
-2.90902 1.22926 -0.505155 -2.89036 1.23179 -0.50124 -2.86877 1.19854 -0.509015 
-2.88728 1.21987 -0.512866 -2.86863 1.2223 -0.508863 -2.88406 1.2319 -0.524339 
-2.88399 1.24387 -0.524263 -2.86538 1.24612 -0.520175 -2.89937 1.25355 -0.539911 
[...]
POINT_DATA 6890
SCALARS z_coord float
LOOKUP_TABLE default
0.705649 0.705727 0.711194 0.711273 0.704426 0.710067 0.697894 0.697973 0.691169 
0.691249 0.673706 0.673786 0.468503 0.470918 0.475957 0.66679 0.672048 0.462825 
0.465457 0.676058 0.438418 0.43847 0.436498 0.436549 0.441158 0.443488 0.443539 
0.450175 0.454786 0.663466 0.428778 0.426594 0.426797 0.426847 0.429135 0.645518 
0.414964 0.415014 0.417167 0.417217 0.417268 0.633032 0.403392 0.403442 0.405406 
0.615623 0.395864 0.397792 0.395964 0.608059 0.382814 0.384704 0.590851 0.573926 
0.578629 0.557326 0.557406 0.545136 0.545217 0.528824 0.528904 0.520757 0.520838 
0.504637 0.504717 0.488708 0.488787 0.480449 0.47679 0.464872 0.468596 0.452874 
0.452953 0.437589 0.440956 0.422486 0.425761 0.410671 0.413855 0.312081 0.307327 
0.302737 0.29516 0.292391 0.289622 0.288179 0.284079 0.282801 0.282851 0.280243 
0.276471 0.27652 0.275239 0.274124 0.271678 0.398856 0.398934 0.284542 0.280399 
0.279159 0.276465 0.273932 0.27269 0.274031 0.274081 0.269122 0.266746 0.266795 
0.265549 0.263172 0.307988 0.30476 0.30153 0.257253 0.256044 0.254991 0.372551 
0.250089 0.248916 0.247895 0.246873 0.242922 0.360828 0.241693 0.239668 0.238678 
0.237688 0.236976 0.234946 0.234992 0.231598 0.230641 0.229682 0.228724 0.22877 
0.228816 0.228862 0.228908 0.224519 0.223593 0.221694 0.22174 0.220813 0.221832 
0.220905 0.220951 0.147763 0.138134 0.137647 0.302255 0.13299 0.131943 0.13098 
0.130436 0.271655 0.27177 0.259089 0.252067 0.249941 0.247814 0.125698 0.12479 
0.123802 0.123845 0.260143 0.121369 0.11992 0.118544 0.11814 0.208476 0.206808 
0.114958 0.114092 0.112244 0.194914 0.191791 0.191878 0.10676 0.106805 0.106391 
0.177176 0.17586 0.102658 0.101852 0.101046 0.101092 0.100346 0.099964 0.162757 
0.161549 0.0960355 0.0952945 0.0945526 0.0942041 0.0938552 0.0935623 0.14974 0.148642 
0.0896169 0.0893026 0.17979 0.179907 0.137797 0.135735 0.0828345 0.0825522 0.158807 
0.125674 0.0750964 0.138642 0.113323 0.0680167 0.0672673 0.118171 0.116024 0.0999683 
0.0607038 0.0602836 0.100848 0.0981577 0.0866133 0.0536561 0.0532999 0.0831274 0.0817601 
0.0727114 0.0465319 0.0462386 0.0461145 0.0456738 0.0455485 0.0454227 0.04515 0.0702369 
0.0690445 0.0590381 0.0582926 0.0395162 0.0392869 0.0391947 0.0388454 0.0386136 0.0385395 
0.038445 0.053069 0.052705 0.0453003 0.0450791 0.0320007 0.0317401 0.0316926 0.0368448 
0.0363655 0.0323932 0.0320933 0.0250795 0.0250592 0.0250386 0.0250938 0.0250712 0.0200334 
0.0200259 0.0193171 0.0193213 0.0184177 0.0184189 0.0184259 0.0185306 0.0185739 0.0186561 
0.00351561 0.00368644 0.0066687 0.0067928 0.0117253 0.0117583 0.0119783 -0.0127611 -0.0124194 
-0.00569587 -0.00549267 0.00495012 0.00505338 0.00531922 -0.0291007 -0.0289927 -0.0176468 -0.0173545 
-0.00184621 -0.0018013 -0.0454402 -0.0453322 -0.008637 -0.00850161 -0.00828971 -0.0625555 -0.0616717 
-0.0154652 -0.0150987 -0.0148398 -0.0800274 -0.0770828 -0.0224207 -0.0217366 -0.0978847 -0.0943507 
-0.0292764 -0.177133 -0.1754 -0.190607 -0.188755 -0.20211 -0.190709 -0.194882 -0.194807 
-0.196289 -0.197771 -0.215958 -0.206964 -0.206884 -0.212032 -0.215625 -0.225092 -0.221088 
-0.219046 -0.215292 -0.201581 -0.204624 -0.207752 -0.207676 -0.230365 -0.230281 -0.232181 
-0.236235 -0.232012 -0.22805 -0.224091 -0.224254 -0.231551 -0.239298 -0.239215 -0.233221 
-0.239803 -0.239725 -0.247579 -0.235745 -0.37509 -0.371791 -0.368494 -0.353078 -0.5032 
-0.576164 -0.573628 -0.597884 -0.63203 -0.645883 -0.677085 -0.501256 -0.497349 -0.505232 
-0.505155 -0.50124 -0.509015 -0.512866 -0.508863 -0.524339 -0.524263 -0.520175 -0.539911 
-0.531638 -0.527464 -0.527389 -0.519552 -0.555733 -0.551471 -0.543025 -0.538765 -0.530763 
-0.550066 -0.534036 -0.518613 -0.511354 -0.514545 -0.511038 -0.503868 -0.675967 -0.524993 
-0.521418 -0.517611 -0.510767 -0.503691 -0.410485 -0.500324 -0.50026 -0.4971 -0.411902 
-0.667697 -0.662038 -0.513504 -0.506886 -0.506821 -0.506757 -0.39945 -0.407724 -0.415511 
-0.526483 -0.522958 -0.407206 -0.420056 -0.4283 -0.645002 -0.539916 -0.532803 -0.529215 
-0.522608 -0.519021 -0.417212 -0.435053 -0.441264 -0.436472 -0.57331 -0.564754 -0.561099 
-0.549757 -0.542518 -0.542453 -0.427301 -0.42063 -0.420579 -0.579568 -0.567226 -0.563249 
-0.555882 -0.548518 -0.586026 -0.58596 -0.585895 -0.585829 -0.570941 -0.585027 -0.588939 
-0.577198 -0.558299 -0.440656 -0.577267 -0.581114 -0.588311 -0.592156 -0.592091 -0.633611 
-0.637979 -0.637908 -0.603495 -0.587237 -0.575569 -0.586865 -0.583111 -0.640042 -0.63546 
-0.639903 -0.635322 -0.635253 -0.639695 -0.624945 -0.624878 -0.624811 -0.624744 -0.632993 
-0.632926 -0.632858 -0.63279 -0.632723 -0.607381 -0.468869 -0.631143 -0.626598 -0.622452 
-0.622387 -0.622321 -0.618177 -0.626269 -0.63028 -0.626137 -0.621994 -0.474487 -0.632951 
-0.632885 -0.6369 -0.628543 -0.628478 -0.624268 -0.628348 -0.624138 -0.620226 -0.578491 
-0.495045 -0.630718 -0.634501 -0.638648 -0.638583 -0.634242 -0.577121 -0.518651 -0.515675 
-0.512991 -0.512937 -0.512883 -0.509909 -0.507227 -0.632318 -0.636468 -0.640247 -0.640183 
-0.636149 -0.636085 -0.579317 -0.582852 -0.586087 -0.520893 -0.574612 -0.577899 -0.577841 
-0.552299 -0.523133 -0.545841 -0.536677 -0.556741 -0.576394 -0.573116 -0.573062 -0.575218 
-0.571895 -0.5689 -0.568846 -0.534937 -0.564721 -0.561686 -0.561634 -0.566822 -0.563747 
-0.571595 -0.571544 -0.564899 -0.564849 -0.561693 -0.575301 -0.572454 -0.572404 -0.576821 
-0.573938 -0.571056 -0.561999 -0.559082 -0.558336 -0.569774 -0.585364 -0.573868 -0.587281 
-0.587232 -0.58423 -0.587134 -0.600125 -0.604407 -0.601711 -0.606084 -0.560575 0.474764 
0.475265 0.475738 0.636629 0.476182 0.466978 0.473867 0.467545 -0.614639 0.474478 
0.465214 0.0982866 -0.614554 0.472148 0.465735 0.0974067 -0.60309 -0.614899 -0.615816 
-0.616553 0.472714 0.466226 0.0947878 -0.605122 -0.6064 -0.603717 -0.611578 0.624977 
0.489017 0.482634 0.0917926 0.0825154 -0.614229 -0.615235 0.626538 0.514645 0.508428 
0.499043 0.486672 0.480274 0.0896279 0.0803757 -0.616284 -0.617267 0.641389 0.515452 
0.506067 0.496682 0.484326 0.477913 0.0964964 -0.617533 -0.614949 -0.615866 0.535118 
0.528871 0.516228 0.503706 0.0947337 -0.619612 0.535985 0.52648 0.516974 0.507469 
0.0929451 -0.603836 0.0907414 -0.610864 -0.611835 -0.616335 0.0885377 -0.612955 -0.613902 
-0.61839 -0.612482 0.0870902 -0.622339 -0.61597 0.0848595 -0.61898 -0.623598 -0.620795 
0.0826287 -0.621133 -0.633314 -0.63024 0.080398 -0.626873 -0.631843 0.0954887 0.0866725 
-0.632965 -0.630017 0.093271 0.0848044 -0.637652 -0.634263 0.0910532 0.0825737 -0.630166 
-0.630973 -0.631877 -0.644594 0.0892109 0.0803429 -0.649042 -0.637346 0.232685 0.219513 
0.0873727 -0.258676 -0.271543 -0.280807 -0.630625 -0.63132 0.233051 0.218311 0.0855062 
-0.241044 -0.246749 -0.255729 -0.284586 -0.291649 -0.29657 -0.299504 -0.641086 -0.629714 
0.227459 0.214361 0.0836117 -0.24168 -0.245594 -0.254462 -0.26165 -0.286859 -0.29192 
-0.298801 -0.301694 -0.630222 -0.639258 -0.648294 0.222026 0.210526 0.0809884 -0.243953 
-0.249546 -0.311318 -0.636568 0.21945 0.206649 0.0787295 -0.247905 -0.255261 -0.309477 
-0.630681 -0.635518 0.215581 0.202885 0.0764706 -0.230427 -0.239463 -0.635233 -0.636095 
-0.641142 0.215652 0.201568 0.0925914 0.0839196 -0.2327 -0.241736 -0.311923 -0.641874 
-0.638396 0.213057 0.199027 0.0907243 0.0812827 -0.231753 -0.244009 -0.318409 -0.627533 
-0.632551 0.238672 0.223641 0.0884372 0.0790096 -0.23887 -0.249641 -0.302513 -0.309533 
-0.632137 -0.641522 -0.637882 -0.642999 0.235982 0.221008 0.0869056 0.0770583 -0.241157 
-0.251942 -0.30277 -0.634498 -0.63529 -0.644554 -0.649401 0.234887 0.21973 0.0853737 
0.0753866 -0.239263 -0.302999 -0.628356 -0.633309 0.232176 0.217079 0.0830281 0.0733875 
-0.241593 -0.305258 -0.621423 -0.62642 0.224967 0.211716 0.0806826 -0.26029 -0.318037 
-0.627974 -0.628736 0.220943 0.207803 0.0783369 -0.249161 -0.258856 -0.63032 0.0763222 
-0.246197 -0.255702 -0.632665 0.218427 0.0736458 -0.239951 -0.239082 -0.302341 -0.628801 
-0.638306 -0.639278 0.215757 0.0912127 0.0809855 -0.245093 -0.313173 -0.631192 -0.632254 
0.210413 0.19865 0.0884155 0.0782791 -0.254821 -0.633583 -0.638851 0.193623 0.0860396 
0.0759335 -0.247417 -0.25731 -0.307747 -0.310651 -0.625687 -0.622337 -0.631782 -0.645479 
0.191046 0.0840394 0.0732725 -0.254099 -0.303582 -0.619354 -0.61642 -0.629951 -0.635069 
0.18847 0.0820347 0.0712424 -0.242501 -0.250584 -0.305958 -0.617644 -0.631251 0.554777 
0.542657 0.199882 0.187045 0.0997324 0.0905011 -0.250628 -0.30317 -0.315018 -0.610575 
-0.60767 -0.616934 0.846429 0.842082 0.20101 0.186783 0.0987749 -0.250722 -0.25708 
-0.307807 -0.612951 -0.618264 -0.627649 0.855255 0.8567 0.621397 0.609277 0.602039 
0.594594 0.540116 0.520356 0.235171 0.223629 0.0962863 -0.267915 -0.275908 -0.288261 
-0.296107 -0.30169 -0.309324 -0.319217 -0.608901 -0.605882 -0.607154 0.864365 0.865981 
0.489431 0.473911 0.39376 0.262923 0.23908 0.227158 -0.607059 -0.616629 -0.621804 
0.89241 0.894657 0.518541 0.502108 0.489782 0.47366 0.457745 0.390945 0.263831 
0.253646 0.241423 0.227472 -0.609467 -0.61469 0.909038 0.449702 0.433916 0.402674 
0.37423 0.268846 0.262795 0.250572 -0.596903 -0.602304 -0.607576 -0.617081 0.933592 
0.439528 0.434275 0.421949 0.406396 0.26785 0.25972 0.24938 -0.607697 -0.604711 
-0.609967 -0.623851 0.937752 0.415544 0.406522 0.264826 -0.605671 -0.607119 0.956469 
0.412469 0.403421 0.273498 0.265883 0.25985 -0.59717 -0.606998 -0.599956 -0.59725 
0.968814 0.403025 0.397171 0.276626 0.268772 0.256851 0.0976955 -0.608125 -0.600854 
-0.602364 -0.603623 0.95413 0.949809 0.403093 0.387981 0.283302 0.271665 0.263858 
0.0948591 -0.606236 -0.611943 0.973964 0.961944 0.390977 0.379151 0.280375 0.270724 
0.260883 0.0930753 -0.604587 -0.610214 0.393954 0.376176 0.293388 0.279505 -0.593142 
-0.598476 -0.61267 0.406067 0.393947 0.375992 0.294766 0.282745 -0.599703 0.408757 
0.406244 0.390899 0.375886 0.298532 0.286206 -0.606297 0.399969 0.303013 -0.597551 
-0.603237 -0.613199 0.387929 0.307004 -0.604367 -0.605743 -0.620136 0.967179 0.382068 
0.308809 -0.620377 -0.617007 0.964078 0.370663 0.313311 0.303688 0.132745 0.121014 
0.108599 0.0858174 -0.630361 -0.631289 -0.62757 -0.615151 0.918308 0.362494 0.308043 
0.302938 0.129794 0.117309 0.105672 0.0940347 0.0828663 -0.637804 -0.643847 -0.635071 
-0.622088 0.901154 0.396679 0.368289 0.354541 0.309661 0.295392 0.151321 0.138575 
0.0911074 0.0803601 -0.645551 -0.64146 0.898203 0.387769 0.357738 0.34211 0.311383 
0.29916 0.148346 0.135624 0.0886959 0.0778062 -0.659237 0.909312 0.333452 0.0857447 
0.07441 0.0625833 0.0509645 -0.64438 -0.655569 -0.656848 0.88748 0.889596 0.0601786 
0.048158 0.0362307 -0.647194 0.891393 0.886573 0.0571548 0.0451342 0.0331136 -0.629749 
-0.655917 0.902745 0.890625 0.878506 0.0300463 -0.656675 -0.641634 -0.652824 -0.653407 
0.907158 0.887577 0.875457 0.027066 -0.643392 -0.634145 0.858553 0.846631 0.848169 
0.0362522 0.0240358 -0.636074 0.825298 0.846787 0.848322 0.843028 0.0332482 0.0209545 
0.00886755 -0.0030225 -0.64302 -0.62867 0.030239 0.0178212 0.00549482 -0.00683142 -0.630514 
-0.646835 0.00258212 -0.00964082 -0.0218639 -0.0253592 -0.621517 -0.637817 -0.627174 -0.644266 
-0.624354 -0.640704 -0.631089 -0.633076 -0.633992 -0.629538 -0.63069 -0.642328 1.29259 
-0.637779 -0.638979 -0.639799 1.21464 1.18787 1.16173 1.17012 1.15528 1.07601 
1.02369 -0.616935 -0.634288 -0.635488 1.18716 1.15018 1.147 1.14353 1.12898 
1.09314 1.05851 -0.625291 -0.631855 -0.643777 1.01692 1.07136 -0.578199 -0.580233 
-0.582304 -0.59909 -0.621578 -0.628315 1.12201 1.0917 0.99098 0.908045 0.927552 
-0.556727 -0.569484 -0.582241 -0.594998 -0.607755 1.1297 1.17476 1.02091 0.926071 
0.896939 0.907605 -0.570399 -0.57814 -0.591013 -0.603886 -0.61676 0.937746 0.915508 
0.901786 0.913263 -0.552822 -0.550388 -0.558183 -0.575902 0.957012 0.970459 0.956056 
0.932606 0.918346 -0.561465 -0.55887 -0.571743 -0.584616 1.02851 -0.613924 -0.5848 
-0.564791 -0.562108 0.886952 0.851474 -0.59436 0.90269 0.87591 -0.595855 -0.574553 
-0.644715 0.784585 0.767474 0.708135 -0.573433 0.677613 0.660501 0.64339 0.605841 
0.576662 0.554649 0.533127 0.506852 -0.569323 0.479755 0.470336 0.448756 0.432226 
0.429446 -0.652871 -0.605564 -0.607504 -0.621146 -0.609375 -0.611237 -0.598035 -0.640875 
-0.599732 -0.636225 -0.617267 -0.633077 -0.653639 -0.653083 -0.631534 -0.641762 -0.643168 
-0.629249 -0.624172 -0.64534 -0.598855 -0.623271 -0.61778 -0.612633 -0.614692 1.10944 
1.09291 0.995029 0.978116 0.924092 0.927804 0.941961 0.946267 0.940035 0.952694 
0.935781 0.898605 -0.583378 -0.554815 -0.570593 -0.55789 -0.617415 -0.627297 -0.634402 
-0.637955 -0.635005 -0.604745 -0.62141 -0.615982 -0.625148 -0.635096 -0.63667 -0.649715 
-0.675107 -0.64705 -0.641565 -0.642735 -0.637523 -0.638725 -0.639853 -0.635189 -0.624875 
-0.61551 -0.606728 -0.59837 -0.590501 -0.587623 -0.585017 -0.586548 -0.59184 -0.588243 
-0.59029 -0.606922 -0.608582 -0.615572 -0.606513 -0.598019 -0.594628 -0.591642 -0.584245 
-0.590856 -0.592285 -0.5937 -0.599489 -0.596812 -0.593415 -0.594809 -0.596188 -0.593447 
-0.590867 -0.592441 -0.634961 -0.639265 -0.677792 -0.686571 -0.695139 -0.679408 -0.683115 
-0.683428 -0.647695 -0.622844 -0.624398 -0.625843 -0.623165 -0.616479 -0.617971 -0.619239 
-0.62075 -0.627972 -0.629311 -0.636048 -0.631669 -0.61289 -0.609567 -0.610866 -0.625493 
-0.6269 -0.628127 -0.624185 -0.603621 -0.609543 -0.610884 -0.607691 -0.613443 -0.617226 
-0.581043 -0.575466 -0.159137 -0.173745 -0.506774 -0.545504 -0.151185 -0.167724 -0.341501 
-0.515058 -0.513262 -0.517456 -0.320733 -0.337661 -0.513905 -0.279479 -0.532001 -0.529641 
-0.170823 -0.187179 -0.200984 -0.211941 -0.239167 -0.258953 -0.272246 -0.506804 -0.534366 
-0.55036 -0.131517 -0.149514 -0.162472 -0.513138 -0.553123 -0.569296 -0.585469 -0.136202 
-0.149714 -0.509625 -0.537056 -0.552879 -0.5818 -0.07352 -0.0904077 -0.106232 -0.120479 
-0.582196 -0.565114 -0.0679695 -0.0832899 -0.101275 -0.116928 -0.571492 -0.581247 -0.0626684 
-0.078744 -0.574605 -0.577537 -0.0449788 -0.594711 -0.597068 -0.0444029 -0.600477 -0.596682 
-0.586811 -0.570938 -0.624411 -0.592244 -0.599692 -0.601901 -0.596102 -0.572157 -0.579388 
-0.551935 0.163895 0.142824 0.140029 0.122443 0.415717 0.420827 0.138646 0.123795 
0.508393 0.478066 0.445388 0.418923 0.408581 0.409344 0.414475 0.402903 0.138532 
0.125124 0.506921 0.474266 0.452036 0.434448 0.422316 0.406493 0.142984 0.129464 
0.441406 0.432137 0.433777 0.413135 0.397815 0.148753 0.135035 0.462272 0.446034 
0.4046 0.386076 0.154803 0.139641 0.46143 0.445274 0.37522 0.158243 0.14308 
0.46054 0.444466 0.425363 0.400654 0.399043 0.371694 0.357831 0.34092 0.16462 
0.147792 0.428115 0.403318 0.388643 0.394689 0.392092 0.375362 0.365134 0.357765 
0.195448 0.18362 0.430867 0.409031 0.391285 0.388345 0.371947 0.365036 0.354712 
0.19707 0.182065 0.393926 0.403515 0.198671 0.185468 -0.582282 0.402566 0.403012 
0.179281 -0.317767 -0.329034 -0.355257 0.414859 0.396476 0.396775 0.179478 -0.304388 
-0.312105 -0.362038 -0.384508 -0.467947 -0.488282 -0.503445 -0.595031 -0.608263 0.396331 
0.178237 0.167381 -0.234149 -0.248852 -0.260717 -0.272294 -0.277695 -0.280048 -0.340647 
-0.365425 -0.383575 -0.378056 -0.38788 -0.421949 -0.436081 -0.441196 -0.450491 -0.468921 
-0.605261 0.389958 0.184226 -0.184482 -0.193478 -0.204073 -0.220639 -0.430247 -0.443479 
-0.452373 -0.465485 -0.552481 -0.564924 -0.562323 0.750213 0.719275 0.383844 0.372198 
0.357843 0.182884 0.170873 -0.178374 -0.195613 -0.209619 -0.420269 -0.429076 -0.441625 
-0.564289 -0.561863 0.730609 0.39232 0.377663 0.368653 0.209195 0.194574 0.18297 
0.171184 -0.152022 -0.162366 -0.170937 -0.185845 -0.430916 -0.431623 -0.443653 -0.547224 
-0.563949 0.881872 0.727208 0.37709 0.195987 0.184525 0.171528 -0.146588 -0.155363 
-0.166825 -0.184839 -0.428895 -0.44488 -0.472409 -0.547114 -0.563512 -0.547486 0.885207 
0.716587 0.385689 0.197348 -0.1413 -0.152762 -0.418825 -0.427054 -0.465941 -0.535367 
-0.546919 -0.536326 0.888542 0.832946 0.811446 0.780395 0.385492 0.198716 -0.128419 
-0.417224 -0.425266 -0.444099 -0.455745 -0.47135 -0.539893 -0.538086 0.820786 0.807056 
0.786162 0.723191 0.382154 0.369817 0.35748 0.235929 0.221778 0.209442 0.197105 
-0.125799 -0.134848 -0.407803 -0.419176 -0.43055 -0.438254 -0.532908 -0.535546 0.84724 
0.833108 0.803873 0.686596 0.685352 0.349246 0.339887 0.327858 0.281913 0.269781 
0.25568 0.241862 0.22993 -0.146283 -0.36503 -0.385678 -0.387426 -0.398625 -0.406519 
-0.525963 -0.537247 0.792333 0.778731 0.758394 0.738305 0.731436 0.36015 0.34792 
0.325592 0.284665 0.27454 0.260401 0.25008 0.23435 0.214456 -0.133379 -0.14775 
-0.163807 -0.317696 -0.331582 -0.34869 -0.357151 -0.377944 -0.555018 -0.561868 0.810162 
0.788939 0.761452 0.741334 0.741008 0.740849 0.350694 0.335945 0.323813 0.31653 
0.304193 0.287417 0.275285 -0.135981 -0.14718 -0.161227 -0.325877 -0.321016 -0.32929 
-0.348751 -0.365944 -0.547915 -0.554695 0.75103 0.750862 0.730492 0.710593 0.353468 
0.341238 0.326565 0.316778 0.306992 0.294655 0.280088 -0.17002 -0.18802 -0.203419 
-0.211499 -0.21183 -0.223028 -0.236194 -0.247477 -0.265495 -0.277047 -0.286176 -0.30805 
-0.322735 -0.5543 -0.56128 0.681786 0.680617 0.673214 0.659735 0.640551 0.616224 
0.307323 -0.168949 -0.182009 -0.200712 -0.199783 -0.212933 -0.22235 -0.229738 -0.242885 
-0.265205 -0.274427 -0.283575 -0.300143 -0.306501 -0.556354 -0.563232 0.678962 0.677542 
0.66431 0.656936 0.637847 0.624615 0.310097 0.297867 0.285637 -0.553712 -0.565358 
0.619899 0.611934 0.593189 0.579833 0.566478 0.312871 0.300641 0.293016 -0.555703 
-0.567443 0.561076 0.552398 0.538795 0.525192 0.50716 0.502442 0.493182 0.301177 
0.291186 0.281176 0.268839 0.254496 -0.557651 -0.569484 0.860957 0.786223 0.549448 
0.536336 0.527766 0.510111 0.492848 0.496739 0.491826 0.30619 0.29396 0.283974 
0.271638 0.25727 -0.553048 0.851717 0.464609 0.451377 0.438145 0.25059 0.242358 
0.232121 0.872156 0.439231 0.429403 0.412026 0.398423 0.381543 0.262663 0.245824 
0.231408 0.222231 0.204762 -0.578215 0.918378 0.87556 0.835606 0.790247 0.74189 
0.722015 0.434717 0.421362 0.411559 0.394651 0.384601 0.263428 0.232471 0.206014 
-0.57058 0.885073 0.718694 0.705582 0.698553 0.691498 0.672089 0.658858 0.64002 
0.368461 0.133237 0.125352 -0.572802 0.715547 0.696542 0.689552 0.682332 0.663557 
0.645013 0.368343 0.352896 0.120365 0.632857 0.64201 0.588522 0.356837 0.169942 
0.160086 0.114952 0.107271 0.641399 0.645096 0.643103 0.168101 0.16052 0.118798 
0.107856 0.0953262 0.169488 0.161978 0.121281 0.1097 0.0982819 0.0865748 -0.529072 
-0.531785 0.760068 0.72734 0.542663 0.526506 0.330593 0.176192 0.16865 0.100727 
0.0894786 0.0779702 -0.526409 -0.542641 0.730288 0.540415 0.516948 0.513154 0.321248 
0.305646 0.162226 0.0929049 0.0816117 0.0711816 0.0611568 -0.523746 -0.539956 0.772995 
0.746027 0.519765 0.504222 0.49267 0.321544 0.30174 0.16696 0.0970173 0.0859041 
0.0744026 0.0639809 -0.516727 -0.528373 -0.522465 0.88514 0.812433 0.755801 0.503102 
0.49529 0.321801 0.302115 0.170685 0.0781271 0.067859 0.0563068 -0.514085 -0.517076 
-0.519906 0.97298 0.807999 0.75203 0.505702 0.497911 0.319716 0.300459 0.169847 
0.0811352 0.0712314 0.0592095 -0.521642 -0.560374 -0.558027 0.916367 0.874208 0.500531 
0.488979 0.473915 0.322199 0.302868 0.282887 0.14999 0.0742915 0.0624581 0.0497957 
0.0381119 -0.532093 -0.557667 -0.550718 0.844264 0.495729 0.487978 0.480048 0.327022 
0.309452 0.163729 0.154534 0.0530781 0.0410641 0.0295553 -0.559719 -0.566892 -0.555126 
-0.561975 0.49422 0.482668 0.340552 0.324921 0.316221 0.169623 0.0554891 0.043843 
0.0322617 -0.561748 -0.573394 -0.561625 -0.559189 0.987821 0.485289 0.466769 0.340588 
0.325123 0.174591 0.161827 0.0350106 0.023177 0.0115469 0.000283059 -0.0111796 -0.554409 
-0.552242 -0.554645 -0.548107 0.519104 0.507075 0.487369 0.348039 0.176 0.163361 
0.0376949 0.0258614 0.0141888 0.0021944 -0.00963915 -0.534881 -0.549943 -0.569758 -0.567223 
0.509803 0.493914 0.485744 0.360826 0.155516 0.0047189 -0.00670815 -0.0181074 -0.550184 