# vtk DataFile Version 4.2
vtk output
ASCII
DATASET POLYDATA
POINTS 6418 float
-3.42501 -2.59002 0.74363 -3.42494 -2.57729 0.743711 -3.42166 -2.58997 0.731345 
-3.39812 -2.55738 0.725784 -3.41831 -2.58991 0.719059 -3.3948 -2.55733 0.713595 
-3.4395 -2.61074 0.712482 -3.41489 -2.57711 0.706855 -3.41162 -2.58979 0.694488 
-3.38815 -2.55721 0.689216 -3.38476 -2.54451 0.677107 -3.38143 -2.54446 0.664918 
-3.60633 -2.84599 0.701488 -3.40143 -2.56414 0.657794 -3.60275 -2.84592 0.688362 
-3.44695 -2.61839 0.65584 -3.42248 -2.58477 0.650715 -3.46902 -2.64007 0.648691 
-3.4191 -2.58471 0.638329 -3.56903 -2.82232 0.656654 -3.44014 -2.61827 0.630866 
-3.41572 -2.58465 0.625943 -3.56549 -2.82226 0.643637 -3.43674 -2.61821 0.61838 
-3.41235 -2.58459 0.613557 -3.38461 -2.55111 0.596448 -3.38454 -2.53838 0.596529 
-3.14401 1.32551 0.576524 -3.61244 -2.87006 0.628069 -3.50537 -2.76193 0.607437 
-3.38126 -2.55105 0.584162 -3.35803 -2.51878 0.579752 -2.29954 1.45316 0.397584 
-2.29076 1.45437 0.395833 -2.28088 1.45462 0.393856 -2.28083 1.4627 0.393908 
-2.26222 1.45576 0.390127 -2.2436 1.44866 0.386344 -2.24355 1.45658 0.386395 
-2.23477 1.45732 0.384641 -2.23473 1.4652 0.384691 -2.24342 1.48034 0.386547 
-2.24337 1.48826 0.386597 -2.23459 1.48885 0.384842 -2.22472 1.48844 0.382861 
-2.2072 1.48145 0.3793 -3.63637 -2.89444 0.620053 -3.52832 -2.78522 0.599656 
-3.37791 -2.55099 0.571877 -3.35471 -2.51872 0.567563 -2.2974 1.4532 0.389709 
-2.29735 1.46136 0.389761 -2.2973 1.46952 0.389813 -2.28853 1.47065 0.388098 
-2.27866 1.47082 0.386162 -2.26007 1.4638 0.382458 -2.26875 1.47895 0.384277 
-2.25993 1.4878 0.382611 -2.26861 1.50306 0.38443 -2.26857 1.5111 0.384482 
-2.25979 1.51181 0.382764 -2.24993 1.51151 0.380825 -3.57763 -2.83187 0.596563 
-3.39877 -2.57151 0.564095 -3.37449 -2.5382 0.559673 -2.3872 1.4574 0.399557 
-2.37625 1.45764 0.397452 -2.3762 1.46615 0.397506 -2.35544 1.45868 0.393456 
-2.34558 1.45949 0.391565 -2.33463 1.45937 0.389457 -2.31496 1.45231 0.38562 
-2.30511 1.45281 0.383727 -3.54767 -2.80845 0.578639 -3.34814 -2.53123 0.543103 
-3.37114 -2.53814 0.547387 -2.47352 1.46181 0.40802 -2.46149 1.46197 0.405754 
-2.45054 1.46283 0.403699 -2.42762 1.45471 0.399319 -2.40579 1.4472 0.395149 
-2.39594 1.44849 0.393302 -2.39589 1.4571 0.393357 -3.57047 -2.83175 0.57031 
-3.36772 -2.52535 0.535183 -3.36765 -2.51261 0.535264 -3.34543 1.40926 0.560281 
-2.47117 1.46185 0.399391 -2.47111 1.4708 0.399448 -2.4591 1.4709 0.397232 
-2.44817 1.47171 0.395222 -2.43724 1.47243 0.393211 -2.41434 1.46406 0.388926 
-2.40342 1.46454 0.386913 -3.51418 -2.77159 0.548113 -3.41321 -2.66956 0.530643 
-3.36438 -2.52529 0.522897 -3.34208 1.40932 0.547996 -2.5909 1.48448 0.412966 
-2.57781 1.48477 0.410604 -2.5658 1.48571 0.408444 -2.56574 1.49508 0.408503 
-2.55265 1.49509 0.40614 -2.51565 1.47773 0.399332 -2.50364 1.4782 0.397169 
-3.53695 -2.79477 0.539675 -3.4591 -2.71286 0.526538 -3.38512 -2.5456 0.514715 
-3.36095 -2.5125 0.510693 -3.46055 1.45637 0.557558 -3.29308 1.38678 0.527486 
-2.77132 1.51988 0.436372 -2.75606 1.52003 0.43368 -2.7408 1.52005 0.430986 
-2.656 1.48284 0.415742 -2.6288 1.47407 0.410877 -2.61463 1.47401 0.408375 
-2.60155 1.47459 0.40607 -2.58846 1.47505 0.403764 -3.58702 -2.84216 0.535559 
-3.4808 -2.73496 0.518024 -3.38175 -2.54554 0.502329 -3.48311 1.46923 0.54935 
-3.31259 1.39814 0.519409 -2.76862 1.51993 0.426463 -2.7382 1.50996 0.421141 
-3.58341 -2.8421 0.522318 -3.47732 -2.7349 0.505227 -3.37837 -2.54548 0.489942 
-4.1021 1.19485 0.639327 -3.45357 1.4565 0.531963 -3.33204 1.4095 0.511139 
-2.86048 1.52904 0.432555 -2.84417 1.52923 0.429807 -2.82894 1.52999 0.427247 
-2.82888 1.54053 0.427314 -2.81257 1.54038 0.424564 -3.55251 -2.81782 0.504765 
-3.44872 -2.71268 0.488461 -3.37499 -2.54542 0.477557 -4.42115 1.26805 0.677523 
-3.45008 1.45656 0.519166 -3.42509 1.45745 0.515062 -3.42502 1.4706 0.515146 
-2.89122 1.55061 0.427925 -2.87493 1.55095 0.425247 -2.84132 1.53989 0.419637 
-2.80987 1.52995 0.414392 -2.77843 1.51974 0.409145 -3.44518 -2.69946 0.475853 
-3.34806 -2.60139 0.460983 -3.37154 -2.53252 0.465252 -3.37147 -2.51968 0.465334 
-4.41655 1.26813 0.660645 -3.44659 1.45662 0.506368 -3.44652 1.46988 0.506453 
-3.42156 1.47066 0.502454 -2.83859 1.52933 0.409331 -3.46678 -2.72145 0.466919 
-3.36868 -2.62232 0.452293 -3.36817 -2.53246 0.452866 -3.3681 -2.51962 0.452948 
-4.69471 1.28552 0.688126 -3.4181 1.47072 0.489761 -3.39425 1.47183 0.486039 
-3.36932 1.47218 0.482141 -3.51551 -2.76741 0.461747 -3.43819 -2.68618 0.450552 
-3.34086 -2.51214 0.43698 -3.34079 -2.49941 0.437061 -3.43947 1.48327 0.480943 
-3.43939 1.49654 0.481027 -3.41449 1.49709 0.477237 -3.43481 -2.69928 0.437776 
-3.36193 -2.6222 0.427521 -3.3147 -2.49274 0.42145 -3.31463 -2.48011 0.42153 
-3.46178 1.50974 0.472163 -3.4617 1.52312 0.472249 -3.46163 1.5365 0.472334 
-3.43568 1.53639 0.468484 -3.38709 1.52416 0.461188 -3.33851 1.5115 0.453889 
-3.33843 1.52434 0.453971 -3.33836 1.53717 0.454053 -3.31457 1.53713 0.450524 
-3.20327 1.5258 0.433931 -3.18164 1.52586 0.430724 -3.22468 1.56257 0.437374 
-3.2688 1.60028 0.44419 -3.33771 1.65271 0.45479 -3.38613 1.69382 0.46227 
-3.38605 1.70687 0.462354 -3.3612 1.70525 0.458654 -3.16055 1.62283 0.428295 
-3.14001 1.62242 0.425244 -3.13994 1.63439 0.425321 -3.06014 1.59707 0.413213 
-2.27178 1.42917 0.295053 -2.26312 1.43049 0.293778 -2.19805 1.46539 0.284377 
-3.43135 -2.69922 0.425084 -3.35855 -2.62214 0.415135 -3.3113 -2.48005 0.409341 
-3.43226 1.52319 0.455602 -3.40742 1.52353 0.45202 -3.45712 1.71047 0.460536 
-3.48288 1.73881 0.464457 -3.50864 1.76737 0.468379 -3.48273 1.76579 0.464629 
-3.43099 1.74867 0.45704 -3.22088 1.66135 0.426097 -3.17776 1.64743 0.419775 
-3.13679 1.63445 0.413771 -3.05708 1.59713 0.402002 -2.24168 1.40708 0.282985 
-2.23303 1.40828 0.281746 -3.42789 -2.69915 0.412391 -3.37902 -2.64307 0.405943 
-3.24071 -2.41085 0.388215 -3.21896 -2.38038 0.385384 -3.55874 1.81269 0.463104 
-3.47911 1.77934 0.451698 -2.25899 1.40619 0.277946 -2.25894 1.41431 0.277998 
-3.4006 -2.678 0.396607 -3.37562 -2.64301 0.393456 -3.25911 -2.42902 0.379126 
-3.23739 -2.39845 0.376387 -2.30414 1.42658 0.276691 -2.26548 1.4048 0.271272 
-2.25685 1.40623 0.270108 -2.24715 1.40674 0.268791 -3.34849 -2.6348 0.377895 
-3.34842 -2.62196 0.377977 -3.27855 -2.4481 0.369991 -3.23415 -2.3984 0.364481 
-2.26333 1.40483 0.263397 -2.25471 1.40626 0.262269 -2.25467 1.41439 0.262321 
-3.29866 -2.59352 0.359857 -3.29859 -2.58088 0.359938 -2.26118 1.40487 0.255522 
-3.318 -2.61359 0.350332 -3.31793 -2.60086 0.350413 -4.62813 -2.63534 0.51242 
-2.24086 1.39069 0.245296 -2.25689 1.40495 0.239772 -4.61829 -2.61666 0.476815 
-2.28354 1.42758 0.235385 -2.30165 1.43514 0.2297 -2.33143 1.46695 0.233242 
-4.62791 -2.5714 0.338222 -2.61719 1.67049 0.183276 -4.47104 1.2756 0.213569 
-4.42476 1.27875 0.211358 -4.37953 1.28182 0.209198 -4.29234 1.27033 0.204916 
-4.20513 1.20821 0.183996 -4.28783 1.25292 0.187926 -4.20493 1.24245 0.184215 
-4.08223 1.18594 0.16264 -4.08214 1.20253 0.162746 -4.04331 1.20584 0.161229 
-3.9354 1.18481 0.156814 -3.96685 1.18116 0.142687 -3.8622 1.1609 0.138858 
-4.00222 1.22585 0.144229 -3.96262 1.18124 0.12717 -3.8581 1.16097 0.123798 
-3.99794 1.22592 0.128557 -3.99367 1.226 0.112885 -3.9894 1.22608 0.0972126 
-3.94552 1.2137 0.0653076 -3.91009 1.2171 0.0648487 -4.21268 1.48178 0.0706648 
-3.97659 1.2263 0.0501959 -4.05104 1.30258 0.0513711 -4.20813 1.48186 0.0539688 
-3.97231 1.22638 0.0345237 -4.16315 1.46573 0.0369745 -3.96804 1.22645 0.0188515 
-4.11827 1.44959 0.0203368 -3.99997 1.23942 0.0031163 -4.07453 1.43387 0.00405406 
-3.99566 1.2395 -0.0127158 -4.07022 1.41719 -0.0122187 -4.10937 1.44975 -0.0123422 
-4.02952 1.25321 -0.0289527 -4.06581 1.41727 -0.0283845 -4.06571 1.43403 -0.0282776 
-2.32861 1.45677 -0.0058092 -4.06226 1.26655 -0.0455123 -4.0614 1.41735 -0.0445503 
-4.10046 1.44991 -0.0450212 -2.33658 1.46485 -0.0144239 -3.98271 1.23973 -0.0602124 
-4.057 1.41743 -0.0607161 -4.09601 1.44999 -0.0613607 -4.01643 1.25344 -0.0769565 
-4.01568 1.38612 -0.0761102 -4.01559 1.4027 -0.0760044 -4.01132 1.3862 -0.0921115 
-3.93387 1.22706 -0.106526 -3.93313 1.35701 -0.105697 -4.00325 1.27026 -0.124855 
-3.9647 1.37131 -0.122704 -2.29337 1.42273 -0.0560974 -3.92523 1.24346 -0.137767 
-4.03563 1.30053 -0.142293 -3.92486 1.30843 -0.137353 -3.85503 1.32952 -0.134139 
-3.9603 1.3878 -0.138431 -2.31251 1.43946 -0.0653333 -3.88622 1.23084 -0.151825 
-3.88558 1.34341 -0.151107 -3.99378 1.40309 -0.156011 -3.9897 1.35342 -0.17233 
-3.95185 1.35513 -0.170305 -2.33945 1.46419 -0.083838 -3.94754 1.35521 -0.186137 
-2.3371 1.46423 -0.0924671 -3.98098 1.35357 -0.204332 -3.94322 1.35529 -0.201969 
-3.9075 1.35746 -0.199731 -3.9807 1.40332 -0.204015 -2.31342 1.44758 -0.0998678 
-3.79953 1.31606 -0.208718 -3.90314 1.37378 -0.215299 -2.31109 1.44762 -0.108401 
-3.82991 1.32996 -0.226307 -3.89886 1.37386 -0.230971 -2.30887 1.42997 -0.117047 
-2.30882 1.43881 -0.11699 -3.82572 1.33004 -0.241669 -3.89459 1.37393 -0.246644 
-2.30654 1.43001 -0.12558 -2.31661 1.44676 -0.126246 -3.82153 1.33011 -0.25703 
-3.89032 1.37401 -0.262316 -2.30421 1.43005 -0.134113 -3.81735 1.33019 -0.272392 
-3.85165 1.3601 -0.275139 -2.30189 1.43009 -0.142646 -3.84751 1.34409 -0.290758 
-3.88178 1.37416 -0.29366 -3.84319 1.36025 -0.306173 -3.87333 1.35807 -0.325108 
-3.87323 1.37431 -0.325005 -3.94154 1.38744 -0.348132 -3.9042 1.38879 -0.34425 
-3.93717 1.38751 -0.364134 -3.89988 1.38887 -0.360082 -3.96896 1.40224 -0.38414 
-3.93272 1.40417 -0.380029 -3.93263 1.42076 -0.379923 -2.27796 1.41369 -0.192813 
-3.96456 1.40231 -0.400306 -3.92836 1.40425 -0.39603 -3.89116 1.40543 -0.391642 
-2.26464 1.40513 -0.200052 -3.924 1.40433 -0.412032 -3.9239 1.42091 -0.411926 
-3.95987 1.45266 -0.416151 -3.95977 1.46941 -0.416044 -3.92362 1.47067 -0.411608 
-3.81736 1.44111 -0.398761 -2.27333 1.41377 -0.209788 -4.28615 0.784846 -0.478159 
-3.99348 1.46874 -0.437062 -3.99338 1.48567 -0.436954 -3.91926 1.47075 -0.42761 
[...]
POINT_DATA 6418
SCALARS z_coord float
LOOKUP_TABLE default
0.74363 0.743711 0.731345 0.725784 0.719059 0.713595 0.712482 0.706855 0.694488 
0.689216 0.677107 0.664918 0.701488 0.657794 0.688362 0.65584 0.650715 0.648691 
0.638329 0.656654 0.630866 0.625943 0.643637 0.61838 0.613557 0.596448 0.596529 
0.576524 0.628069 0.607437 0.584162 0.579752 0.397584 0.395833 0.393856 0.393908 
0.390127 0.386344 0.386395 0.384641 0.384691 0.386547 0.386597 0.384842 0.382861 
0.3793 0.620053 0.599656 0.571877 0.567563 0.389709 0.389761 0.389813 0.388098 
0.386162 0.382458 0.384277 0.382611 0.38443 0.384482 0.382764 0.380825 0.596563 
0.564095 0.559673 0.399557 0.397452 0.397506 0.393456 0.391565 0.389457 0.38562 
0.383727 0.578639 0.543103 0.547387 0.40802 0.405754 0.403699 0.399319 0.395149 
0.393302 0.393357 0.57031 0.535183 0.535264 0.560281 0.399391 0.399448 0.397232 
0.395222 0.393211 0.388926 0.386913 0.548113 0.530643 0.522897 0.547996 0.412966 
0.410604 0.408444 0.408503 0.40614 0.399332 0.397169 0.539675 0.526538 0.514715 
0.510693 0.557558 0.527486 0.436372 0.43368 0.430986 0.415742 0.410877 0.408375 
0.40607 0.403764 0.535559 0.518024 0.502329 0.54935 0.519409 0.426463 0.421141 
0.522318 0.505227 0.489942 0.639327 0.531963 0.511139 0.432555 0.429807 0.427247 
0.427314 0.424564 0.504765 0.488461 0.477557 0.677523 0.519166 0.515062 0.515146 
0.427925 0.425247 0.419637 0.414392 0.409145 0.475853 0.460983 0.465252 0.465334 
0.660645 0.506368 0.506453 0.502454 0.409331 0.466919 0.452293 0.452866 0.452948 
0.688126 0.489761 0.486039 0.482141 0.461747 0.450552 0.43698 0.437061 0.480943 
0.481027 0.477237 0.437776 0.427521 0.42145 0.42153 0.472163 0.472249 0.472334 
0.468484 0.461188 0.453889 0.453971 0.454053 0.450524 0.433931 0.430724 0.437374 
0.44419 0.45479 0.46227 0.462354 0.458654 0.428295 0.425244 0.425321 0.413213 
0.295053 0.293778 0.284377 0.425084 0.415135 0.409341 0.455602 0.45202 0.460536 
0.464457 0.468379 0.464629 0.45704 0.426097 0.419775 0.413771 0.402002 0.282985 
0.281746 0.412391 0.405943 0.388215 0.385384 0.463104 0.451698 0.277946 0.277998 
0.396607 0.393456 0.379126 0.376387 0.276691 0.271272 0.270108 0.268791 0.377895 
0.377977 0.369991 0.364481 0.263397 0.262269 0.262321 0.359857 0.359938 0.255522 
0.350332 0.350413 0.51242 0.245296 0.239772 0.476815 0.235385 0.2297 0.233242 
0.338222 0.183276 0.213569 0.211358 0.209198 0.204916 0.183996 0.187926 0.184215 
0.16264 0.162746 0.161229 0.156814 0.142687 0.138858 0.144229 0.12717 0.123798 
0.128557 0.112885 0.0972126 0.0653076 0.0648487 0.0706648 0.0501959 0.0513711 0.0539688 
0.0345237 0.0369745 0.0188515 0.0203368 0.0031163 0.00405406 -0.0127158 -0.0122187 -0.0123422 
-0.0289527 -0.0283845 -0.0282776 -0.0058092 -0.0455123 -0.0445503 -0.0450212 -0.0144239 -0.0602124 
-0.0607161 -0.0613607 -0.0769565 -0.0761102 -0.0760044 -0.0921115 -0.106526 -0.105697 -0.124855 
-0.122704 -0.0560974 -0.137767 -0.142293 -0.137353 -0.134139 -0.138431 -0.0653333 -0.151825 
-0.151107 -0.156011 -0.17233 -0.170305 -0.083838 -0.186137 -0.0924671 -0.204332 -0.201969 
-0.199731 -0.204015 -0.0998678 -0.208718 -0.215299 -0.108401 -0.226307 -0.230971 -0.117047 
-0.11699 -0.241669 -0.246644 -0.12558 -0.126246 -0.25703 -0.262316 -0.134113 -0.272392 
-0.275139 -0.142646 -0.290758 -0.29366 -0.306173 -0.325108 -0.325005 -0.348132 -0.34425 
-0.364134 -0.360082 -0.38414 -0.380029 -0.379923 -0.192813 -0.400306 -0.39603 -0.391642 
-0.200052 -0.412032 -0.411926 -0.416151 -0.416044 -0.411608 -0.398761 -0.209788 -0.478159 
-0.437062 -0.436954 -0.42761 -0.216927 -0.453185 -0.225364 -0.525667 -0.23525 -0.232964 
-0.247962 -0.242895 -0.509139 -0.561572 -0.554812 -0.252337 -0.253689 -0.251439 -0.25728 
-0.530679 -0.536125 -0.539538 -0.533482 -0.533372 -0.527469 -0.527359 -0.52725 -0.521352 
-0.521244 -0.515497 -0.521028 -0.52092 -0.520812 -0.520704 -0.526377 -0.526267 -0.531937 
-0.531827 -0.52594 -0.525831 -0.525721 -0.525612 -0.519731 -0.514001 -0.263734 -0.263677 
-0.261376 -0.267409 -0.559189 -0.559081 -0.558973 -0.565063 -0.564954 -0.571041 -0.577285 
-0.55051 -0.538447 -0.550289 -0.555859 -0.555747 -0.555636 -0.54344 -0.543331 -0.543222 
-0.543113 -0.543004 -0.536935 -0.536827 -0.542567 -0.536503 -0.530594 -0.524993 -0.271405 
-0.277779 -0.588289 -0.594721 -0.568884 -0.587737 -0.587627 -0.277799 -0.280041 -0.591976 
-0.281351 -0.290366 -0.557172 -0.551518 -0.556975 -0.562429 -0.583091 -0.284948 -0.290503 
-0.545085 -0.550157 -0.571789 -0.577389 -0.465894 -0.458173 -0.45809 -0.293161 -0.294025 
-0.295649 -0.592349 -0.462923 -0.470682 -0.301374 -0.302284 -0.303954 -0.59543 -0.617934 
-0.611488 -0.599447 -0.491404 -0.487207 -0.48319 -0.463544 -0.32958 -0.322067 -0.310543 
-0.610099 -0.62227 -0.614459 -0.495948 -0.495865 -0.491565 -0.338305 -0.326777 -0.316986 
-0.567703 -0.567611 -0.472204 -0.349084 -0.337267 -0.325199 -0.328868 -0.483928 -0.351739 
-0.345754 -0.328125 -0.495651 -0.366634 -0.334257 -0.507452 -0.507374 -0.348094 -0.596531 
-0.59126 -0.531538 -0.35632 -0.362196 -0.604588 -0.6045 -0.604413 -0.604325 -0.609533 
-0.609444 -0.383951 -0.368464 -0.36841 -0.588103 -0.612661 -0.564327 -0.572942 -0.581783 
-0.384982 -0.608386 -0.608306 -0.617947 -0.603166 -0.601199 -0.601044 -0.610484 -0.403829 
-0.618165 -0.622941 -0.590342 -0.5859 -0.613 -0.561003 -0.41886 -0.597333 -0.624878 
-0.555822 -0.563629 -0.541601 -0.541531 -0.622702 -0.627261 -0.570534 -0.596253 -0.536934 
-0.529842 -0.438386 -0.621758 -0.636304 -0.631269 -0.607403 -0.547172 -0.543403 -0.439368 
-0.439313 -0.439258 -0.62365 -0.609694 -0.550055 -0.514115 -0.450217 -0.445406 -0.445351 
-0.616355 -0.59881 -0.556324 -0.55242 -0.55619 -0.55996 -0.567308 -0.55599 -0.534448 
-0.534383 -0.551955 -0.548311 -0.555656 -0.45606 -0.456005 -0.61374 -0.613668 -0.60497 
-0.600717 -0.600646 -0.454601 -0.464405 -0.466944 -0.611455 -0.624416 -0.628864 -0.615497 
-0.602665 -0.465149 -0.465095 -0.46768 -0.613256 -0.596217 -0.596149 -0.572838 -0.471053 
-0.455902 -0.598282 -0.567714 -0.522224 -0.518882 -0.510072 -0.510014 -0.506949 -0.506892 
-0.489718 -0.489663 -0.474033 -0.612578 -0.588486 -0.569923 -0.503901 -0.503789 -0.500898 
-0.495563 -0.484672 -0.487397 -0.63085 -0.602047 -0.575809 -0.596909 -0.560526 -0.550553 
-0.546976 -0.546917 -0.550254 -0.600227 -0.559649 -0.546351 -0.546293 -0.542954 -0.546059 
-0.539674 -0.536741 -0.533521 -0.598173 -0.601918 -0.601792 -0.587089 -0.594346 -0.551845 
-0.548572 -0.585275 -0.596214 -0.603584 -0.601661 -0.597978 -0.605463 -0.607113 -0.592653 
-0.58428 -0.584222 -0.591004 -0.594677 -0.589678 -0.574776 -0.544549 -0.573549 -0.560277 
-0.552923 -0.571727 -0.559358 -0.553758 -0.548505 -0.566602 -0.568348 -0.578601 -0.575668 
-0.584814 -0.579224 -0.589123 -0.589074 -0.580751 -0.596339 -0.59629 -0.590565 -0.582191 
-0.576846 -0.540262 -0.554176 -0.554131 -0.566077 -0.568741 -0.568695 -0.560913 -0.560868 
-0.583445 -0.577918 -0.575524 -0.575433 -0.595956 0.588541 0.581267 0.230423 0.21856 
0.566465 0.558883 0.542811 0.53504 0.523118 0.507331 0.266945 0.252569 0.236028 
0.228078 0.215081 0.182655 0.524235 0.508198 0.492529 0.480702 0.468876 0.457049 
0.31727 0.19816 0.189292 0.505199 0.49717 0.477727 0.469434 0.336549 0.3146 
0.239226 0.195929 0.186116 0.458084 0.442592 0.430671 0.415618 0.400756 0.380333 
0.336194 0.175963 0.446486 0.434367 0.415751 0.397804 0.380237 0.353041 0.337312 
0.324304 -0.588542 0.176132 -0.581608 0.38304 0.35759 0.173831 -0.583938 0.352231 
-0.586269 -0.599571 0.344435 0.326392 -0.592592 0.532494 0.520271 0.33685 0.321527 
0.180315 0.171447 -0.590929 -0.60833 0.553865 0.541642 0.529419 0.513032 0.500913 
0.488793 0.334099 0.318816 0.180019 0.172862 -0.59326 -0.61069 0.473625 0.461505 
0.445915 0.430524 0.415472 0.403645 0.369366 0.329055 0.313894 0.176807 0.174304 
-0.591552 -0.604854 0.470576 0.454912 0.439446 0.421124 0.361403 0.338669 0.313403 
0.303015 0.17832 0.171958 -0.59792 -0.603071 0.36904 0.343012 0.32339 0.312924 
0.302458 0.176944 -0.58567 -0.590987 -0.596182 -0.601552 0.323096 0.305824 0.17561 
-0.584053 -0.581822 -0.590914 -0.600006 0.318134 0.297193 0.172314 0.161427 -0.582405 
-0.584109 0.313329 0.294561 0.169115 -0.581012 -0.59016 0.314844 0.297754 0.166814 
-0.591044 -0.596239 0.314243 0.29909 -0.588073 -0.597398 -0.606722 0.777727 0.311338 
0.302058 -0.58644 -0.599743 -0.604969 0.774518 0.320084 0.303658 -0.592764 0.73971 
0.702437 0.695769 0.338415 0.334061 -0.568684 -0.577888 -0.591101 0.723878 0.705153 
0.692615 0.345847 0.333624 -0.578806 -0.588131 -0.597455 0.713863 0.689462 0.676924 
0.34815 0.330549 0.168614 -0.588989 -0.602413 0.668197 0.650521 0.633051 0.615787 
0.603668 0.345023 0.322463 0.16812 -0.591365 -0.596816 0.670617 0.64742 0.624858 
0.607934 0.595913 0.33926 0.314689 0.166701 -0.582781 -0.592351 -0.593741 -0.587149 
0.54825 0.3512 0.336159 0.309415 0.1644 -0.577227 -0.590575 0.348073 0.335643 
0.313392 0.162939 -0.579602 -0.589047 0.375902 0.34643 0.350603 -0.122877 -0.132935 
-0.142083 -0.153469 -0.162733 -0.174559 -0.183944 -0.207204 -0.219927 -0.572533 -0.581978 
-0.579621 0.375682 0.343406 -0.128006 -0.222366 -0.58284 0.369539 0.340382 -0.126906 
-0.585247 -0.133464 -0.21918 -0.223681 -0.564509 -0.574014 -0.587654 -0.135953 -0.229682 
-0.570922 -0.580492 -0.585911 -0.115782 -0.124542 -0.577367 0.173676 -0.139847 -0.163301 
-0.221647 -0.556596 -0.570156 -0.579791 -0.585306 0.172189 -0.143418 -0.157034 -0.169835 
-0.566623 -0.576318 -0.586013 -0.583578 0.170669 -0.18562 -0.192895 -0.569062 -0.578757 
0.169179 -0.186731 -0.579713 -0.589542 0.169678 -0.11226 -0.562529 -0.568432 -0.582186 
-0.587959 -0.229626 -0.565001 -0.574829 -0.127716 -0.230895 -0.212468 -0.115832 -0.125722 
-0.216884 -0.23313 -0.116473 -0.128473 -0.221339 -0.589877 -0.120289 -0.137309 -0.15288 
-0.162975 -0.172956 -0.179608 -0.190797 -0.196835 -0.200992 -0.211608 -0.227737 -0.57197 
-0.582212 -0.125311 -0.140167 -0.151528 -0.164384 -0.177421 -0.180827 -0.19193 -0.201266 
-0.200418 -0.214279 -0.228644 -0.243327 -0.570513 -0.580686 -0.582257 0.172616 -0.568769 
-0.57475 0.171086 -0.567242 -0.569 0.169458 -0.549704 -0.569765 -0.571489 0.167852 
-0.58318 -0.611737 -0.599211 -0.665124 -0.665837 -0.606458 -0.651726 1.07707 1.03669 
0.848302 0.337468 0.315868 -0.583473 -0.608993 -0.636007 -0.631716 1.016 0.851053 
0.827302 0.331213 0.312573 -0.586266 -0.611851 -0.623212 -0.614577 0.838642 0.82349 
0.800321 0.793187 0.330693 0.311895 -0.589059 -0.605011 1.01896 0.796549 0.805675 
0.311157 0.290501 -0.580749 -0.596637 -0.602955 0.808877 0.793565 0.31045 -0.597701 
-0.629728 -0.615532 0.925347 0.307062 -0.591076 -0.592611 0.957311 0.911601 0.303674 
-0.57984 -0.581804 0.892029 0.867478 0.297732 0.113682 -0.574327 -0.576119 -0.578045 
-0.579888 0.888095 0.872457 0.313015 0.291939 -0.611434 -0.602728 0.893628 0.877817 
0.306979 0.283888 -0.641412 0.899074 0.87384 0.3436 0.306176 0.282912 -0.630898 
-0.637696 -0.650126 0.904668 0.346463 0.308041 -0.639936 -0.640823 -0.653252 0.900603 
0.865886 0.310037 -0.643118 0.896538 0.329447 0.306484 -0.632436 -0.639256 -0.640359 
-0.652896 0.873742 0.857932 0.325788 0.300218 -0.624183 -0.630975 -0.637773 -0.638976 
0.930995 0.904568 0.319224 0.294105 -0.275033 -0.286765 -0.621592 -0.62847 0.926884 
0.318471 0.29062 -0.248622 -0.268603 -0.287176 -0.624745 -0.631596 0.870931 0.317732 
0.297576 -0.318885 -0.327863 -0.336652 -0.342351 -0.609863 -0.627899 -0.629238 0.360417 
0.341557 -0.362854 -0.37124 -0.379588 -0.391041 -0.402493 -0.563068 -0.590159 -0.602382 
0.901507 0.337705 -0.390668 -0.392426 -0.400693 -0.408771 -0.58101 -0.593233 -0.610787 
0.333854 -0.446302 -0.480505 -0.511323 -0.566816 -0.584085 -0.596308 0.330003 -0.444798 
-0.456818 -0.472907 -0.492184 -0.574937 -0.581984 -0.594104 0.909145 0.323015 0.316191 
0.900537 0.303747 0.284035 0.896232 0.288169 0.273478 -0.584381 -0.586452 -0.594054 
0.891928 0.279373 0.269782 0.255092 0.2404 -0.591273 0.280778 0.266087 0.249138 
0.236705 -0.620298 -0.602792 -0.598571 -0.589 0.249987 0.23301 0.218319 0.201846 
0.187301 -0.624109 -0.600186 0.250881 0.231413 0.214623 0.198187 0.182091 -0.614561 
-0.597697 0.680533 0.300344 0.272545 -0.674236 -0.637182 -0.605417 -0.60125 0.759137 
0.734003 0.717284 0.700564 0.659845 0.650406 0.633686 0.623831 0.606918 0.296186 
0.276801 -0.686729 0.292819 0.312614 0.296084 0.2767 0.260355 0.318433 0.285941 
0.301167 0.284822 0.323438 0.31581 0.331842 0.302001 0.304196 0.30642 -0.631288 
-0.641508 -0.581511 -0.638113 -0.585244 -0.649336 -0.645817 0.138182 0.132615 0.115702 
0.0910286 0.10402 0.0869637 -0.576721 -0.598242 -0.572733 -0.547119 -0.551423 -0.555728 
-0.125118 -0.14223 -0.159341 -0.180757 -0.500737 -0.598403 -0.598581 -0.593513 -0.595106 
-0.596451 -0.616754 -0.618284 -0.62498 -0.608863 -0.629603 -0.606111 -0.625217 -0.640068 
-0.65492 -0.649257 -0.643732 -0.638619 -0.6164 -0.628523 -0.643528 -0.658533 -0.673537 
-0.667283 -0.648144 -0.619174 -0.599432 -0.608823 -0.618164 -0.606196 -0.608127 -0.623447 
-0.595636 -0.60507 -0.607297 -0.609473 -0.618298 -0.584778 -0.594386 -0.686829 -0.663613 
-0.616397 -0.593739 -0.563153 -0.570711 -0.578251 -0.590801 -0.598022 -0.599594 -0.570053 
-0.58698 -0.613364 -0.566212 -0.569223 -0.585763 -0.566633 -0.579864 -0.586378 -0.588346 
-0.578371 -0.575435 -0.577465 -0.589396 -0.601328 -0.603011 -0.585289 -0.577823 -0.580684 
-0.577506 -0.569836 -0.572068 -0.593503 -0.600348 -0.597071 -0.589241 -0.594471 -0.591406 
-0.593061 -0.585633 -0.574344 -0.567827 -0.587558 -0.580617 -0.573813 -0.589689 -0.586821 
-0.579984 -0.57737 -0.577641 -0.571033 -0.572848 -0.57857 -0.588405 -0.602555 -0.579507 
-0.572784 -0.574698 -0.576339 -0.590406 -0.60461 -0.0429604 -0.0555099 1.04274 1.03482 
0.316584 0.308923 0.293611 0.278616 1.21765 1.16164 1.13306 1.02733 1.02203 
1.00549 0.311996 0.297279 0.285049 0.281487 1.20772 1.17824 1.13668 1.01975 
1.00358 0.998326 0.55838 0.48752 0.415275 0.382564 0.370014 0.360295 1.07394 
1.05845 1.04297 1.03825 1.0226 1.00694 0.566429 0.506122 0.446863 0.404436 
0.385411 0.366939 0.351748 -0.418756 -0.460398 -0.495819 -0.506527 -0.516983 -0.508906 
-0.507275 -0.503564 -0.49514 -0.499853 -0.479786 -0.490312 -0.481681 -0.492432 -0.499147 
-0.521433 -0.507256 -0.523795 -0.503504 -0.520043 -0.499751 -0.516291 -0.508198 -0.518763 
-0.498235 -0.508786 -0.500517 -0.511171 -0.496677 -0.507375 -0.505924 0.431622 0.410883 
0.378985 0.352943 0.401998 0.382498 0.356347 0.374756 0.356319 0.591554 0.37454 
0.359688 0.359653 0.348206 0.346579 0.392393 0.381278 0.366427 0.354959 0.350092 
0.399499 0.384648 0.369796 0.358363 0.350069 0.432572 0.41772 0.406782 0.431804 
0.413228 0.398671 0.387697 0.683545 0.463172 0.43931 0.420437 0.679702 0.670458 
0.632292 0.596656 0.683498 0.666767 0.636003 0.600246 0.572499 0.551292 0.693681 
0.724687 0.700938 0.492474 0.475934 0.459395 0.438215 0.496226 0.48497 0.463147 
0.441926 0.628226 0.605962 0.572147 0.568387 0.576486 0.566137 0.53795 0.516269 
0.505605 0.494705 0.416082 0.404312 0.380553 0.618897 0.603244 0.587591 0.571938 
0.573965 0.563841 0.530435 0.509327 0.503903 0.482965 0.428409 0.403848 0.384104 
0.349307 0.340555 0.327971 0.705957 0.682045 0.651477 0.387655 0.372002 0.356349 
0.344145 0.331599 0.379381 0.367215 0.729629 0.375334 0.363452 0.402384 0.386561 
0.374472 0.362221 0.397848 0.390151 0.378101 0.423796 0.412632 0.401361 0.459103 
0.448666 0.433814 0.418963 0.404112 0.458118 0.447737 0.441452 0.422332 0.40363 
0.566768 0.540254 0.51988 0.604164 -0.5979 -0.583788 -0.570722 -0.579471 -0.566871 
-0.561409 -0.56308 -0.573946 -0.557877 -0.549249 -0.557613 -0.552742 -0.557868 -0.554094 
-0.54559 -0.540944 -0.545962 -0.554185 -0.559063 -0.564491 -0.549033 -0.554178 -0.565385 
-0.560466 -0.560125 -0.565034 -0.563169 -0.564909 -0.548556 -0.559678 -0.557843 -0.56593 
-0.556009 -0.583773 -0.562261 -0.561952 -0.550794 -0.568134 -0.549009 -0.560025 -0.561557 
-0.562918 -0.562962 -0.558261 -0.565964 -0.567381 -0.551664 -0.556513 -0.551843 -0.559384 
-0.559222 -0.554713 -0.563634 -0.55006 -0.56196 -0.561878 -0.557194 -0.552849 -0.551165 
-0.561601 -0.552444 -0.556906 -0.553705 -0.555221 -0.55692 -0.561169 -0.556521 -0.549206 
-0.553762 -0.547556 -0.546353 -0.551916 -0.547432 -0.549156 -0.544254 -0.545797 -0.547537 
-0.545918 -0.553054 -0.554605 -0.551435 -0.549816 -0.551398 -0.545462 -0.547025 -0.551255 
-0.544422 -0.544076 -0.542872 -0.545292 -0.544144 -0.539771 -0.538771 -0.540106 -0.529431 
-0.531045 -0.533235 -0.53206 -0.536137 -0.545291 -0.525555 -0.534643 -0.546352 -0.525574 
-0.53718 -0.526618 -0.535693 -0.542249 -0.54359 -0.525138 -0.529123 -0.540761 -0.544717 
-0.541838 -0.54583 -0.535229 -0.53695 -0.529011 -0.535482 -0.546801 -0.550687 -0.550528 
-0.55448 -0.558373 -0.524694 -0.546437 -0.547739 -0.551959 -0.526975 -0.514557 -0.511198 
-0.550491 -0.531226 -0.512004 -0.551288 -0.535438 -0.511234 -0.55245 -0.558977 -0.560496 
-0.510412 -0.507353 -0.554837 -0.561333 -0.50884 -0.503153 -0.551089 -0.562542 -0.507267 
-0.4993 -0.551889 -0.558385 -0.562563 -0.558483 -0.538061 -0.53991 -0.503088 -0.497771 
-0.553054 -0.551955 -0.561095 -0.564837 -0.536141 -0.538012 -0.501523 -0.496242 -0.559627 
-0.566098 -0.540972 -0.542683 -0.499958 -0.492416 -0.560513 -0.564491 -0.549121 -0.500977 
-0.495474 -0.561809 -0.568195 -0.532189 -0.507132 -0.503726 -0.562702 -0.569113 -0.567948 
-0.555247 -0.508105 -0.507366 -0.565297 -0.571683 -0.54906 -0.551079 -0.557008 -0.509062 
-0.50838 -0.567457 -0.546859 -0.548907 -0.55485 -0.512556 -0.509379 -0.571161 -0.575171 
-0.578727 -0.538887 -0.54091 -0.550548 -0.516337 -0.512941 -0.576117 -0.580108 -0.529085 
-0.534989 -0.533675 -0.514694 -0.580237 -0.575843 -0.574472 -0.578281 -0.515581 -0.570825 
-0.577211 -0.575482 -0.579323 -0.51393 -0.576886 -0.575445 -0.576322 -0.575001 -0.512279 
-0.574917 -0.578611 -0.510628 -0.573512 -0.577212 -0.508977 -0.510872 -0.574569 -0.575813 
-0.576954 -0.572916 -0.510129 -0.509238 -0.574413 -0.578074 -0.569018 -0.567758 -0.576259 
-0.511263 -0.512952 -0.517677 -0.519426 -0.526596 -0.531112 -0.532873 -0.537219 -0.538741 
-0.571677 -0.567659 -0.563863 -0.569754 -0.509594 -0.514124 -0.518578 -0.520377 -0.524969 
-0.529493 -0.531269 -0.538337 -0.562526 -0.563701 -0.510394 -0.56119 -0.562375 -0.499817 
-0.499324 -0.50133 -0.547931 -0.55774 -0.561049 -0.562151 -0.560983 -0.505095 -0.549144 
-0.547661 -0.561046 -0.557594 -0.563417 -0.564461 -0.561026 -0.562283 -0.483606 -0.547556 
-0.548916 -0.547643 -0.546535 -0.559521 -0.563151 -0.557547 -0.556141 -0.484491 -0.545968 
-0.554275 -0.555806 -0.551746 -0.550378 -0.558445 -0.557076 -0.560468 -0.448112 -0.460192 
-0.470158 -0.552702 -0.556761 -0.55276 -0.54887 -0.554977 -0.560642 -0.566307 -0.419704 
-0.42698 -0.43909 -0.554123 -0.549929 -0.543624 -0.535146 -0.565022 -0.418053 -0.427699 
-0.435014 -0.552579 -0.548414 -0.542144 -0.538568 -0.565948 -0.569402 -0.563344 -0.386478 
-0.39561 -0.40278 -0.560244 -0.563214 -0.568833 -0.566831 -0.570252 0.372464 0.367211 
0.372114 0.373493 0.366391 0.359994 0.372663 0.369969 0.908617 0.367746 0.359101 
0.35404 0.351657 0.352928 0.368938 0.366572 0.366627 0.365455 0.367963 0.867314 
0.875687 0.875825 0.859481 0.837183 0.346945 0.345802 0.356854 0.367204 0.876847 
0.876987 0.86046 0.844418 0.343358 0.342239 0.350813 0.355736 0.357209 0.361047 
0.36394 0.628696 0.86173 0.341059 0.339964 0.604326 0.87135 0.862764 0.337263 
0.337317 0.593191 0.846616 0.846759 0.382093 0.385186 0.383847 0.385308 0.380934 
0.37796 0.376385 0.814976 0.807714 0.336078 0.337238 0.333857 0.594145 0.822589 
0.830897 0.84783 0.384533 0.381622 0.37848 0.375567 0.372652 0.369737 0.364302 
0.360239 0.822712 0.838754 0.847316 0.80768 0.329882 0.329937 0.798749 0.814892 
0.831486 0.831476 0.792617 0.778296 0.785542 0.778559 0.823917 0.324744 0.3248 
0.322729 0.567705 0.579842 0.790909 0.798887 0.807087 0.807543 0.777554 0.777689 
0.785245 0.777957 0.841092 0.322045 0.323344 0.775069 0.782883 0.833346 0.878689 
0.888547 0.840861 0.319247 0.540912 0.541012 0.766735 0.841105 0.307275 0.758421 
0.751016 0.296775 0.749625 0.742391 0.226279 0.227567 0.22599 0.22647 0.226104 