# vtk DataFile Version 4.2
vtk output
ASCII
DATASET POLYDATA
POINTS 8685 float
-2.82886 -0.0729072 0.60459 -2.81323 -0.0624702 0.600811 -2.82874 -0.0523671 0.604721 
-2.82869 -0.042097 0.604787 -2.87646 -0.0317285 0.616664 -2.90866 -0.021051 0.624697 
-2.94308 -0.0100752 0.633282 -2.94302 0.00068276 0.633351 -3.64945 1.85252 0.797261 
-4.4213 0.382601 0.955115 -4.59609 0.401484 0.980252 -4.59599 0.419371 0.980366 
-4.49963 0.391932 0.942031 -4.45531 0.404593 0.932039 -4.49503 0.392014 0.925153 
-4.5402 0.414463 0.935433 -4.49043 0.392095 0.908274 -4.53555 0.414545 0.918366 
-4.48583 0.392177 0.891395 -4.5309 0.414628 0.9013 -4.48123 0.392259 0.874516 
-4.57247 0.419789 0.894075 -4.56787 0.401985 0.876703 -4.6634 0.430394 0.896804 
-4.7114 0.695013 0.908795 -4.61038 0.407066 0.869125 -4.708 0.435923 0.88928 
-4.75703 0.703714 0.90131 -2.32943 -0.353988 0.390023 -2.33714 -0.355589 0.383993 
-2.32722 -0.345702 0.382118 -2.33704 -0.339009 0.384098 -2.337 -0.330719 0.384151 
-2.35559 -0.325491 0.380189 -2.35555 -0.317111 0.380242 -2.36536 -0.310115 0.382183 
-2.35545 -0.300351 0.380349 -2.36527 -0.293269 0.38229 -2.40795 -0.290288 0.390526 
-2.41559 -0.300153 0.384013 -2.41554 -0.291503 0.384069 -2.40559 -0.273033 0.382331 
-2.4472 -0.304583 0.381887 -2.49307 -0.301644 0.39037 -2.51598 -0.295478 0.394642 
-2.94972 -0.107528 0.476054 -2.601 -0.315686 0.401495 -2.64135 -0.311196 0.408812 
-2.67922 -0.32596 0.406526 -2.67917 -0.316135 0.406589 -2.74855 -0.335114 0.409385 
-2.74723 -0.101954 0.410872 -2.50726 -0.0224925 0.370056 -2.76112 -0.337018 0.402157 
-2.74582 -0.32493 0.399668 -2.74577 -0.314792 0.399733 -2.74531 -0.233693 0.40025 
-2.77531 -0.154109 0.405889 -2.79048 -0.14453 0.408516 -2.75973 -0.0921286 0.403719 
-2.78887 -0.340873 0.39729 -2.77359 -0.328652 0.394867 -2.77353 -0.318382 0.394932 
-2.77313 -0.246491 0.395391 -2.74264 -0.233646 0.390469 -2.7423 -0.172821 0.390857 
-2.80309 -0.165978 0.400908 -2.78782 -0.154818 0.398477 -2.77255 -0.143791 0.396046 
-2.77249 -0.133521 0.396111 -2.74195 -0.111996 0.391245 -2.71354 -0.08104 0.386797 
-2.78609 -0.330488 0.387384 -2.78603 -0.320152 0.387449 -2.78598 -0.309815 0.387515 
-2.74032 -0.294423 0.380301 -2.71204 -0.281278 0.375857 -2.77043 -0.246443 0.385482 
-2.73998 -0.233598 0.380689 -2.81482 -0.334343 0.382303 -2.7985 -0.321921 0.379839 
-2.79844 -0.311519 0.379905 -2.75284 -0.296061 0.372883 -2.75255 -0.245042 0.373208 
-2.76767 -0.236125 0.375639 -2.72079 -0.272612 0.358733 -2.69149 -0.25967 0.354361 
-2.74981 -0.23479 0.363428 -2.84069 -0.338147 0.366719 -2.82549 -0.325718 0.364552 
-2.74712 -0.234743 0.353583 -2.8379 -0.338097 0.356481 -2.82271 -0.325669 0.354378 
-2.72931 -0.233409 0.341565 -2.83511 -0.338047 0.346243 -2.80375 -0.323673 0.341948 
-2.74176 -0.234648 0.333894 -2.8485 -0.340015 0.338193 -2.83226 -0.327387 0.336073 
-2.72398 -0.233314 0.322003 -2.86292 -0.342116 0.330146 -2.84563 -0.329283 0.327954 
-2.70743 -0.252225 0.310254 -2.70737 -0.242149 0.310318 -2.73639 -0.234552 0.314204 
-2.86009 -0.342066 0.319767 -2.84282 -0.329233 0.317648 -2.73371 -0.234505 0.304359 
-2.73365 -0.224301 0.304424 -2.74865 -0.21525 0.306408 -2.84007 -0.339865 0.307273 
-2.84001 -0.329183 0.307341 -2.73108 -0.244661 0.294449 -2.74606 -0.235742 0.296368 
-2.71593 -0.223035 0.292725 -2.71587 -0.212897 0.29279 -2.65639 -0.218376 0.276168 
-2.68525 -0.200697 0.279748 -2.61306 -0.215024 0.261945 -2.65362 -0.188671 0.266819 
-1.79155 -0.35844 0.102767 -1.89899 -0.374337 -0.0782899 -1.90332 -0.375703 -0.0853028 
-1.90151 -0.37567 -0.0919529 -1.90581 -0.377036 -0.0990481 -1.93049 -0.390102 -0.107818 
-1.91009 -0.3784 -0.106198 -2.60494 0.237107 -0.155356 -2.59066 0.245464 -0.154221 
-1.90217 -0.376971 -0.112403 -2.41078 0.166575 -0.150183 -2.45841 0.180971 -0.153938 
-2.44618 0.189146 -0.152904 -1.90031 -0.370018 -0.119036 -1.90636 -0.364437 -0.119519 
-2.35163 0.151779 -0.15442 -2.39718 0.16548 -0.158221 -2.42044 0.177226 -0.160134 
-2.43153 0.187835 -0.161017 -2.73308 0.297309 -0.186068 -2.73302 0.308138 -0.185999 
-1.89849 -0.369985 -0.125714 -1.91163 -0.365968 -0.126871 -2.38366 0.15518 -0.166217 
-2.68368 0.290635 -0.192374 -1.90274 -0.371321 -0.132974 -1.91587 -0.367275 -0.13419 
-2.63642 0.284252 -0.198449 -1.90092 -0.371289 -0.139678 -1.91403 -0.367242 -0.140954 
-2.70952 0.273751 -0.216062 -2.70946 0.284509 -0.215994 -2.70933 0.306025 -0.215856 
-1.90616 -0.372852 -0.147126 -1.91218 -0.367209 -0.147719 -2.69074 0.239567 -0.224985 
-2.64625 0.255122 -0.220279 -2.67543 0.269562 -0.223224 -2.6905 0.282295 -0.224713 
-4.22266 0.730054 -0.381094 -4.22256 0.747941 -0.38098 -1.89726 -0.371224 -0.153088 
-1.90429 -0.365837 -0.153819 -2.60043 0.208412 -0.225985 -2.71915 0.243416 -0.238655 
-2.65866 0.246607 -0.232078 -2.6586 0.257152 -0.232011 -2.68775 0.271663 -0.235087 
-2.65848 0.278241 -0.231877 -4.30543 0.766107 -0.407629 -1.89543 -0.371191 -0.159793 
-1.8954 -0.364242 -0.159749 -2.67015 0.216605 -0.244038 -2.70127 0.23087 -0.247476 
-3.89958 0.666845 -0.380498 -1.89361 -0.371159 -0.166498 -1.88753 -0.362871 -0.165735 
-1.84916 -0.349051 -0.18812 -1.87416 -0.347618 -0.191528 -1.85938 -0.35164 -0.196368 
-1.85759 -0.351608 -0.202959 -1.87653 -0.348835 -0.205712 -1.86278 -0.353104 -0.210612 
-3.40419 0.573328 -0.438122 -1.86695 -0.354381 -0.218173 -1.87289 -0.34877 -0.219067 
-3.40045 0.573394 -0.451838 -1.87111 -0.355659 -0.225788 -1.88221 -0.358463 -0.234617 
-3.39297 0.573527 -0.47927 -1.88038 -0.358431 -0.241354 -3.28623 0.552441 -0.475578 
-1.88449 -0.359707 -0.249139 -3.23415 0.542537 -0.480393 -1.88954 -0.354158 -0.257113 
-1.90237 -0.349827 -0.259397 -3.2306 0.5426 -0.49341 -1.89461 -0.355619 -0.265195 
-3.15715 0.501908 -0.493737 -3.17977 0.519633 -0.497819 -3.20338 0.53778 -0.502081 
-1.89867 -0.356866 -0.273154 -1.91938 -0.354142 -0.277063 -3.15369 0.501969 -0.506429 
-3.17628 0.519695 -0.510616 -1.89681 -0.356833 -0.28001 -1.90367 -0.351187 -0.281314 
-3.10594 0.493299 -0.510558 -3.10587 0.506241 -0.510476 -1.94317 -0.359915 -0.296494 
-3.05929 0.484822 -0.514471 -3.01793 0.489206 -0.506206 -3.03539 0.468172 -0.522648 
-2.97445 0.468773 -0.510203 -2.97438 0.481113 -0.510124 -2.9518 0.428212 -0.518263 
-2.95173 0.440458 -0.518185 -2.97128 0.45649 -0.522188 -2.93199 0.461067 -0.513949 
-2.92907 0.412521 -0.525982 -2.96817 0.431868 -0.534251 -2.9681 0.444208 -0.534172 
-2.8887 0.40592 -0.529601 -2.9258 0.424728 -0.537628 -2.98442 0.447959 -0.550343 
-2.79588 0.355252 -0.52133 -2.86713 0.378886 -0.537163 -2.86706 0.390766 -0.537087 
-2.88555 0.405976 -0.541151 -2.84553 0.364001 -0.544474 -2.88254 0.38209 -0.552853 
-2.88247 0.394061 -0.552777 -2.91948 0.412691 -0.561152 -2.73926 0.324408 -0.531924 
-2.77331 0.341167 -0.539801 -2.78981 0.355359 -0.543588 -2.73636 0.313172 -0.542888 
-2.7363 0.324461 -0.542816 -2.7703 0.341221 -0.550853 -1.98332 -0.37952 -0.374336 
-2.71797 0.288449 -0.550142 -2.74998 0.304353 -0.557869 -2.74992 0.315722 -0.557797 
-2.74985 0.327091 -0.557724 -2.74979 0.33846 -0.557652 -1.9891 -0.38119 -0.383631 
-2.63644 0.266541 -0.541513 -2.69851 0.286165 -0.556864 -2.69845 0.297297 -0.556793 
-2.54656 0.213036 -0.530129 -2.56104 0.225217 -0.533747 -2.57553 0.237539 -0.537364 
-2.61911 0.253843 -0.548347 -2.6491 0.268715 -0.55589 -2.57288 0.216499 -0.547672 
-2.6009 0.230481 -0.554861 -2.64636 0.246956 -0.56655 -2.6463 0.257861 -0.566481 
-2.61622 0.264651 -0.558658 -2.55565 0.204367 -0.554091 -2.59815 0.219848 -0.565235 
-2.62808 0.234205 -0.573065 -2.56739 0.206052 -0.568088 -2.56733 0.216597 -0.56802 
-2.55278 0.225363 -0.564063 -2.44317 0.172457 -0.545128 -2.50872 0.189503 -0.563017 
-2.55015 0.204465 -0.574302 -2.34424 0.153063 -0.527927 -2.35575 0.163733 -0.531089 
-2.31967 0.141558 -0.530844 -2.30807 0.149784 -0.527506 -2.30802 0.159092 -0.527446 
-2.24234 0.116572 -0.518326 -2.2519 0.126423 -0.521047 -2.27299 0.137451 -0.527101 
-2.23997 0.116614 -0.527005 -2.26008 0.127406 -0.532878 -2.28211 0.138577 -0.539315 
-2.21667 0.0882037 -0.529541 -2.22716 0.0978799 -0.532642 -2.25779 0.109258 -0.54177 
-2.25774 0.118353 -0.541712 -2.26823 0.128389 -0.54481 -2.22486 0.088978 -0.541328 
-2.24492 0.09942 -0.547395 -1.8672 -0.351878 -0.441818 -2.21204 0.0793952 -0.546755 
-2.22251 0.0890198 -0.549957 -2.23298 0.0987485 -0.553158 -1.83279 -0.344769 -0.438451 
-2.18024 0.051283 -0.546175 -2.1907 0.0606046 -0.549429 -2.24032 0.072375 -0.565018 
-2.25077 0.0820993 -0.56827 -1.88341 -0.341637 -0.462015 -1.89674 -0.33708 -0.466267 
-2.11317 0.0312329 -0.533946 -2.15033 0.0413323 -0.545808 -2.17794 0.0513238 -0.554613 
-2.20746 0.0616951 -0.564026 -2.2284 0.0718452 -0.570689 -2.22835 0.080841 -0.570632 
-1.86146 -0.337433 -0.462486 -2.15669 0.0331097 -0.556959 -2.18617 0.0430931 -0.566517 
-2.20518 0.052845 -0.572662 -1.85957 -0.3374 -0.469406 -1.88621 -0.335655 -0.478213 
-2.10879 0.022889 -0.550253 -2.15441 0.03315 -0.565304 -1.85769 -0.337366 -0.476326 
-1.87763 -0.334264 -0.483016 -2.04675 0.0126881 -0.538315 -2.11608 0.0232642 -0.561572 
-2.14358 0.0328455 -0.570777 -1.86898 -0.318397 -0.487662 -1.85564 -0.308645 -0.483062 
-2.0039 -0.00435633 -0.532327 -2.01998 0.00397442 -0.537783 -1.86035 -0.302663 -0.492245 
-1.8736 -0.297839 -0.496815 -1.8802 -0.291725 -0.499077 -1.8868 -0.285544 -0.501338 
-1.90004 -0.280388 -0.505906 -1.90664 -0.274042 -0.508166 -1.91419 -0.267776 -0.510756 
-1.91415 -0.2603 -0.510708 -1.92075 -0.253784 -0.512967 -1.92071 -0.246275 -0.512919 
-1.97058 -0.0127243 -0.529177 -1.9857 -0.00464949 -0.534384 -1.79653 -0.401374 -0.477833 
-1.87836 -0.3063 -0.506218 -1.89159 -0.301376 -0.510851 -1.89155 -0.294005 -0.510804 
-1.89814 -0.287758 -0.513097 -1.91231 -0.282691 -0.518063 -1.9189 -0.276274 -0.520355 
-1.92644 -0.269936 -0.52298 -1.9264 -0.26239 -0.522932 -1.92635 -0.254844 -0.522884 
-1.91873 -0.24624 -0.520163 -1.94676 -0.0130263 -0.529006 -1.77109 -0.401852 -0.476042 
-1.91671 -0.238697 -0.52736 -1.92424 -0.23217 -0.53002 -1.9242 -0.224624 -0.529972 
[...]
POINT_DATA 8685
SCALARS z_coord float
LOOKUP_TABLE default
0.60459 0.600811 0.604721 0.604787 0.616664 0.624697 0.633282 0.633351 0.797261 
0.955115 0.980252 0.980366 0.942031 0.932039 0.925153 0.935433 0.908274 0.918366 
0.891395 0.9013 0.874516 0.894075 0.876703 0.896804 0.908795 0.869125 0.88928 
0.90131 0.390023 0.383993 0.382118 0.384098 0.384151 0.380189 0.380242 0.382183 
0.380349 0.38229 0.390526 0.384013 0.384069 0.382331 0.381887 0.39037 0.394642 
0.476054 0.401495 0.408812 0.406526 0.406589 0.409385 0.410872 0.370056 0.402157 
0.399668 0.399733 0.40025 0.405889 0.408516 0.403719 0.39729 0.394867 0.394932 
0.395391 0.390469 0.390857 0.400908 0.398477 0.396046 0.396111 0.391245 0.386797 
0.387384 0.387449 0.387515 0.380301 0.375857 0.385482 0.380689 0.382303 0.379839 
0.379905 0.372883 0.373208 0.375639 0.358733 0.354361 0.363428 0.366719 0.364552 
0.353583 0.356481 0.354378 0.341565 0.346243 0.341948 0.333894 0.338193 0.336073 
0.322003 0.330146 0.327954 0.310254 0.310318 0.314204 0.319767 0.317648 0.304359 
0.304424 0.306408 0.307273 0.307341 0.294449 0.296368 0.292725 0.29279 0.276168 
0.279748 0.261945 0.266819 0.102767 -0.0782899 -0.0853028 -0.0919529 -0.0990481 -0.107818 
-0.106198 -0.155356 -0.154221 -0.112403 -0.150183 -0.153938 -0.152904 -0.119036 -0.119519 
-0.15442 -0.158221 -0.160134 -0.161017 -0.186068 -0.185999 -0.125714 -0.126871 -0.166217 
-0.192374 -0.132974 -0.13419 -0.198449 -0.139678 -0.140954 -0.216062 -0.215994 -0.215856 
-0.147126 -0.147719 -0.224985 -0.220279 -0.223224 -0.224713 -0.381094 -0.38098 -0.153088 
-0.153819 -0.225985 -0.238655 -0.232078 -0.232011 -0.235087 -0.231877 -0.407629 -0.159793 
-0.159749 -0.244038 -0.247476 -0.380498 -0.166498 -0.165735 -0.18812 -0.191528 -0.196368 
-0.202959 -0.205712 -0.210612 -0.438122 -0.218173 -0.219067 -0.451838 -0.225788 -0.234617 
-0.47927 -0.241354 -0.475578 -0.249139 -0.480393 -0.257113 -0.259397 -0.49341 -0.265195 
-0.493737 -0.497819 -0.502081 -0.273154 -0.277063 -0.506429 -0.510616 -0.28001 -0.281314 
-0.510558 -0.510476 -0.296494 -0.514471 -0.506206 -0.522648 -0.510203 -0.510124 -0.518263 
-0.518185 -0.522188 -0.513949 -0.525982 -0.534251 -0.534172 -0.529601 -0.537628 -0.550343 
-0.52133 -0.537163 -0.537087 -0.541151 -0.544474 -0.552853 -0.552777 -0.561152 -0.531924 
-0.539801 -0.543588 -0.542888 -0.542816 -0.550853 -0.374336 -0.550142 -0.557869 -0.557797 
-0.557724 -0.557652 -0.383631 -0.541513 -0.556864 -0.556793 -0.530129 -0.533747 -0.537364 
-0.548347 -0.55589 -0.547672 -0.554861 -0.56655 -0.566481 -0.558658 -0.554091 -0.565235 
-0.573065 -0.568088 -0.56802 -0.564063 -0.545128 -0.563017 -0.574302 -0.527927 -0.531089 
-0.530844 -0.527506 -0.527446 -0.518326 -0.521047 -0.527101 -0.527005 -0.532878 -0.539315 
-0.529541 -0.532642 -0.54177 -0.541712 -0.54481 -0.541328 -0.547395 -0.441818 -0.546755 
-0.549957 -0.553158 -0.438451 -0.546175 -0.549429 -0.565018 -0.56827 -0.462015 -0.466267 
-0.533946 -0.545808 -0.554613 -0.564026 -0.570689 -0.570632 -0.462486 -0.556959 -0.566517 
-0.572662 -0.469406 -0.478213 -0.550253 -0.565304 -0.476326 -0.483016 -0.538315 -0.561572 
-0.570777 -0.487662 -0.483062 -0.532327 -0.537783 -0.492245 -0.496815 -0.499077 -0.501338 
-0.505906 -0.508166 -0.510756 -0.510708 -0.512967 -0.512919 -0.529177 -0.534384 -0.477833 
-0.506218 -0.510851 -0.510804 -0.513097 -0.518063 -0.520355 -0.52298 -0.522932 -0.522884 
-0.520163 -0.529006 -0.476042 -0.52736 -0.53002 -0.529972 -0.529924 -0.529876 -0.536489 
-0.544208 -0.544159 -0.527054 -0.529409 -0.532106 -0.532059 -0.532011 -0.54637 -0.546321 
-0.551749 -0.554438 -0.560207 -0.484931 -0.536395 -0.536347 -0.5363 -0.53382 -0.533773 
-0.533725 -0.545904 -0.551408 -0.553788 -0.55131 -0.495693 -0.493531 -0.538358 -0.535847 
-0.535801 -0.538217 -0.540633 -0.540586 -0.540539 -0.540491 -0.540444 -0.542859 -0.545625 
-0.548039 -0.550804 -0.506521 -0.502185 -0.537936 -0.540385 -0.540338 -0.542787 -0.545235 
-0.547682 -0.547635 -0.547588 -0.550035 -0.552837 -0.560626 -0.563428 -0.378762 -0.510938 
-0.384744 -0.387289 -0.384679 -0.382069 -0.400207 -0.400174 -0.392244 -0.394822 -0.392179 
-0.388419 -0.388387 -0.398579 -0.395905 -0.398513 -0.411773 -0.404665 -0.403487 -0.400781 
-0.416809 -0.416776 -0.411133 -0.408395 -0.519394 -0.474575 -0.418842 -0.417245 -0.414476 
-0.411706 -0.496898 -0.494879 -0.425034 -0.422232 -0.41943 -0.416629 -0.506806 -0.50698 
-0.421584 -0.420351 -0.417518 -0.417486 -0.418654 -0.415822 -0.417389 -0.420156 -0.420124 
-0.510906 -0.510839 -0.5108 -0.425033 -0.514921 -0.514881 -0.512823 -0.510745 -0.512757 
-0.514769 -0.51268 -0.514692 -0.521128 -0.521088 -0.521049 -0.52101 -0.523014 -0.518652 
-0.522967 -0.52706 -0.529087 -0.518445 -0.524675 -0.524636 -0.526687 -0.499617 -0.521645 
-0.529365 -0.524937 -0.534836 -0.54067 -0.526694 -0.532132 -0.540307 -0.457022 -0.462998 
-0.470377 -0.441082 -0.445222 -0.441877 -0.444382 -0.445874 -0.451922 -0.454426 -0.447482 
-0.451032 -0.456114 -0.463749 -0.451649 -0.452653 -0.454173 -0.456208 -0.460305 -0.455816 
-0.45683 -0.456803 -0.46039 -0.460952 -0.462499 -0.464571 -0.466118 -0.458827 -0.460389 
-0.461421 -0.462454 -0.462427 -0.465047 -0.46447 -0.465512 -0.466553 -0.469196 -0.47451 
-0.47288 -0.508867 -0.46319 -0.46478 -0.469602 -0.465156 -0.464043 -0.464017 -0.465077 
-0.468855 -0.470243 -0.471312 -0.47293 -0.477835 -0.483288 -0.479403 -0.479376 -0.478244 
-0.479323 -0.479296 -0.480927 -0.480901 -0.485062 -0.48615 -0.486123 -0.486096 -0.487184 
-0.54691 -0.545149 -0.544385 -0.546564 -0.548765 -0.547777 -0.549992 -0.55146 -0.553374 
-0.555602 -0.556802 -0.559044 -0.60013 -0.607379 -0.598858 -0.597602 -0.601869 -0.606067 
-0.606725 -0.598345 -0.602712 -0.606633 -0.582501 -0.589824 -0.597146 -0.580993 -0.588277 
-0.59556 -0.58274 -0.593337 -0.575976 -0.577204 -0.581569 -0.591771 -0.577741 -0.578952 
-0.577088 -0.575377 -0.575334 -0.579506 -0.583962 -0.577109 -0.584505 -0.579537 -0.569995 
-0.5743 -0.575679 -0.562962 -0.567414 -0.571787 -0.576083 -0.564773 -0.566109 -0.573579 
-0.577866 -0.199915 -0.208425 -0.219936 -0.231526 -0.241845 -0.252267 -0.56348 -0.568147 
-0.56966 -0.571017 0.129684 -0.206065 -0.213389 -0.22339 -0.235182 -0.245565 -0.256191 
-0.261481 -0.575019 -0.579464 -0.574566 -0.582192 0.128109 -0.196197 -0.202219 -0.210986 
-0.216806 -0.260001 -0.564503 -0.575354 -0.58025 -0.581332 0.309887 0.296305 0.283221 
0.270389 0.257914 0.247105 0.125238 -0.203977 -0.208582 -0.269324 -0.276251 -0.572616 
-0.577252 0.293964 0.282614 0.269638 0.257131 0.244867 0.123635 -0.204705 -0.212234 
-0.280328 -0.574525 -0.579151 0.231971 0.220343 0.211191 0.156278 0.147126 0.139322 
0.130723 -0.206874 -0.212866 -0.276836 -0.575309 -0.57973 -0.587729 0.207884 0.198788 
0.189692 0.179654 0.170614 0.154083 0.14493 -0.202852 -0.273779 -0.57724 -0.581649 
-0.582947 0.205702 0.195564 0.186525 0.177485 0.168446 0.151887 0.142735 -0.197277 
-0.205048 -0.268966 -0.566264 -0.571123 -0.572295 0.157238 0.131387 0.122235 -0.274753 
-0.558558 -0.569893 -0.57492 -0.579536 0.171134 0.155858 0.129811 0.121774 -0.274992 
-0.570509 -0.571866 -0.573354 -0.581487 0.122542 0.113479 -0.255787 -0.565914 -0.577774 
-0.57595 -0.577332 -0.213735 -0.229415 -0.261274 -0.26505 -0.276347 -0.585666 -0.583534 
-0.58487 -0.582821 -0.214455 -0.225524 -0.231667 -0.26169 -0.267287 -0.269095 -0.596544 
-0.590226 -0.587757 -0.596471 -0.252344 -0.260094 -0.265835 -0.269524 -0.584309 -0.597291 
-0.602613 -0.592355 -0.262265 -0.260442 -0.27001 -0.587969 -0.593109 -0.598136 -0.579548 
-0.5887 -0.590138 -0.585501 -0.587081 -0.583939 -0.581608 -0.571503 -0.573254 -0.578565 
-0.587605 -0.581367 -0.58292 -0.584532 -0.585918 -0.580403 -0.586048 -0.583604 -0.581374 
-0.577219 -0.586852 -0.584391 -0.57953 -0.581102 -0.59061 -0.574544 -0.576263 -0.581841 
-0.572629 -0.574519 -0.572297 -0.045811 -0.579837 -0.581564 -0.57926 -0.580916 -0.0841151 
-0.572109 -0.582276 -0.579733 -0.088061 -0.564382 -0.570434 -0.580531 -0.578135 -0.554636 
-0.560721 -0.557025 -0.563095 -0.563729 -0.557507 -0.563509 -0.565468 0.902229 0.865385 
-0.568523 -0.570441 -0.572309 0.898097 0.861348 -0.587175 -0.579889 -0.595391 -0.570723 
0.866918 0.831276 0.814637 -0.612928 -0.589835 -0.600925 0.827284 0.810645 0.785429 
-0.614324 -0.615739 -0.611917 -0.608528 0.841724 0.824698 0.798744 -0.586351 -0.59337 
-0.605275 -0.606835 -0.598434 -0.533861 -0.545962 -0.565229 -0.582263 -0.594363 -0.617155 
-0.525029 -0.533979 -0.546283 -0.553622 -0.573065 -0.585166 -0.602422 -0.620107 -0.511631 
-0.519908 -0.573843 -0.591345 -0.603753 -0.524796 -0.585176 -0.513109 -0.58353 -0.585375 
-0.572094 -0.583445 -0.579426 -0.590863 -0.591892 -0.584174 -0.599795 -0.591614 -0.582986 
-0.584821 -0.581017 -0.582723 -0.599778 -0.586566 -0.5958 -0.602657 -0.599322 -0.598703 
-0.600496 -0.596998 -0.594599 -0.591447 -0.593229 -0.597526 -0.599293 -0.601124 -0.61521 
-0.605817 -0.618265 -0.614157 -0.610036 -0.61172 -0.603527 -0.606529 -0.595339 -0.600162 
-0.596534 -0.592844 -0.597592 -0.589793 -0.59177 -0.587289 -0.589307 -0.667236 -0.647575 
-0.648893 -0.649981 -0.59702 -0.593483 -0.580054 -0.58219 -0.668685 -0.669524 -0.617078 
-0.601899 -0.588013 -0.589978 -0.526057 -0.542807 -0.560331 0.432969 0.422941 0.475134 
0.398787 0.380025 1.19676 1.23771 1.34753 1.46575 -0.50375 -0.526945 -0.496979 
-0.467865 -0.506096 0.885088 0.822612 0.766631 0.766694 0.736438 0.750991 0.743035 
0.742535 0.711204 0.674218 0.69847 -0.467012 -0.478165 -0.471936 1.41872 1.38596 
0.871387 0.836232 0.794441 0.762996 0.771048 0.76305 0.754899 0.75491 0.746012 
0.703654 -0.448834 -0.470758 -0.475796 0.971976 0.965802 0.931353 0.893842 0.877012 
0.83233 -0.452737 -0.479076 -0.489121 0.978895 -0.456639 -0.477406 -0.487393 0.974762 
-0.466146 -0.48655 -0.496516 0.888698 0.862607 -0.442464 -0.453641 -0.475743 -0.484801 
-0.505865 0.884706 0.849253 -0.441135 -0.45208 0.871166 0.845351 -0.445082 -0.455983 
0.883672 0.857715 0.832565 0.28 0.269453 0.25094 0.230636 0.215058 0.195911 
0.179102 0.162605 0.144137 -0.433427 -0.43919 0.889369 0.853813 0.846818 0.271038 
0.253261 0.242476 0.222757 0.20384 0.1889 0.171047 0.153906 0.137405 -0.422529 
-0.437941 0.84991 0.842871 0.817376 0.792667 0.793512 0.79422 0.794945 0.351157 
0.338796 0.329376 0.31 0.288188 0.264854 -0.467431 -0.477819 -0.487877 0.864746 
0.848106 0.804896 0.814828 0.807012 0.799012 0.790813 0.354407 0.345331 0.325474 
0.300154 0.281733 0.261195 -0.406526 -0.422793 -0.449776 -0.455326 -0.455466 -0.471208 
-0.481556 0.794927 0.777902 0.35242 0.327861 -0.415459 -0.437128 -0.459297 -0.453899 
-0.449034 -0.474984 -0.490727 0.961086 0.790842 0.782548 0.383301 0.371311 0.355569 
0.32705 -0.484349 0.911842 0.372235 0.343816 0.332203 0.303522 -0.488167 0.5316 
0.510866 0.490593 0.475341 0.319855 0.300145 0.0456009 0.0324123 0.0191385 0.00519435 
-0.00883981 -0.0221712 -0.0352625 -0.0481029 -0.0623766 -0.0779037 -0.0917166 -0.103048 -0.11795 
-0.130162 -0.143719 0.522581 0.502186 0.486934 0.319281 0.0421936 0.0292415 0.0159454 
0.00263564 -0.0106743 -0.0235057 -0.0361157 -0.0491871 -0.0630712 -0.0781876 -0.158775 -0.175964 
-0.195936 -0.222059 -0.23957 -0.257466 -0.282159 -0.294286 -0.309699 -0.328891 -0.352564 
-0.36848 -0.384396 -0.400311 -0.421072 -0.442305 -0.464154 -0.486375 -0.46367 -0.500241 
0.518787 0.513779 0.503471 0.357852 0.339507 0.0646723 0.0522484 -0.161998 -0.181221 
-0.201558 -0.223074 -0.240395 -0.258094 -0.273034 -0.28476 -0.299548 -0.321472 -0.344221 
-0.359634 -0.370847 -0.399415 -0.420045 -0.426092 -0.436697 -0.467791 -0.489287 -0.482935 
-0.50961 0.580672 0.571129 0.539836 0.520098 0.525372 0.347588 0.335922 0.0899744 
0.0765431 0.0634361 0.0500775 -0.430766 -0.486632 -0.519356 -0.535271 -0.515658 -0.52492 
0.586319 0.565865 0.551076 0.531226 0.516585 0.516666 0.353939 0.335513 -0.416044 
-0.421619 -0.464353 -0.505742 -0.521155 -0.519243 -0.534183 0.981283 0.977106 0.97272 
0.960312 0.947903 0.951024 0.938404 0.941504 0.668687 0.346987 0.341563 -0.51349 
-0.511788 -0.535504 0.985858 0.70835 0.699314 0.675071 0.349967 -0.526411 -0.529941 
-0.578831 1.0226 1.02784 0.349667 0.318609 -0.539111 -0.576378 1.04425 1.06073 
0.361506 -0.557447 -0.554625 -0.563205 -0.60828 1.14585 1.1095 1.11687 1.10113 
0.344297 -0.543714 -0.558068 -0.596924 -0.611864 -0.595048 1.17039 1.15644 1.1209 
0.340713 0.328879 0.302475 -0.615448 -0.658494 1.68779 1.20068 1.2094 1.11704 
0.337129 0.319206 0.29115 -0.66131 -0.684915 1.68409 1.20836 1.22858 1.23788 
1.22053 1.10149 0.989658 0.98391 0.98904 0.983067 0.965842 0.793594 0.776369 
0.750684 0.363424 0.345234 0.336731 -0.665129 -0.673313 1.28814 1.28612 1.28416 
1.25624 1.22898 1.08176 1.07715 0.969258 0.418633 0.415628 0.397128 0.375568 
0.361214 0.350032 0.341686 0.242164 1.39927 1.38385 1.3545 1.31242 1.35161 
1.08937 1.07329 0.965311 0.415189 0.400834 0.386479 0.372124 0.364334 0.349693 
0.332056 0.238787 -0.629785 1.45556 1.40905 1.08551 1.09299 0.994269 0.988573 
0.98275 0.419385 0.412432 -0.648309 1.4517 1.40528 1.09329 1.01237 0.995542 
0.967942 0.438728 0.415872 0.397589 -0.630195 1.43254 1.38713 1.01969 0.439392 
-0.647527 -0.655478 1.42872 1.39772 1.06714 1.0043 0.229157 1.44012 1.06336 
1.00026 0.517788 0.253296 0.23167 -0.594809 1.42109 1.07095 0.985253 0.513847 
0.197943 1.41727 0.959912 0.494169 0.193149 1.42854 0.993908 0.495384 0.474435 
0.189926 1.40963 1.05949 1.04096 1.00094 0.507371 0.475435 0.189666 1.39081 
1.0946 1.07834 1.00813 0.503379 0.491992 0.184933 1.38703 1.10287 0.233759 
1.4131 1.3535 1.11106 0.540273 0.523247 1.32037 1.11143 0.53037 0.51354 
0.272317 0.252214 1.0836 0.702357 0.543163 0.52069 0.515078 0.26612 0.239869 
1.07974 0.987704 0.706119 0.539125 0.516697 0.500058 0.283744 0.24951 1.33855 
0.701986 0.677163 0.518122 0.276637 0.256445 1.37909 1.34863 1.0023 0.682522 
0.658469 0.508912 0.492823 0.25396 0.248249 1.37527 0.965784 0.505052 0.474321 
1.34291 1.02244 0.951682 0.643517 0.556635 0.534009 0.491002 1.33918 1.01836 
0.937912 0.558673 0.524398 0.457696 1.33544 1.10048 0.924226 0.560751 0.514876 
1.34549 1.0849 0.98794 0.550504 0.510974 1.32797 0.973243 0.220429 0.16118 
1.31052 1.03883 0.217236 0.155874 1.28462 1.26983 1.05723 0.214043 0.151838 
1.29393 1.30511 1.05337 0.977854 0.137359 1.30353 1.31484 0.963194 1.28676 
1.2978 1.08244 0.959292 0.688598 0.543022 1.30939 1.30745 1.09006 0.95539 
0.692166 0.544917 1.29266 1.30375 1.0862 0.951487 0.534853 1.28904 1.30005 
0.937541 0.530768 1.31177 1.30991 0.933681 1.41151 1.35117 0.922756 0.898197 
1.42342 1.34739 0.919059 0.894538 0.713727 0.168208 1.40371 1.34362 1.10686 
0.934321 0.909264 0.18071 1.39981 1.33984 0.95042 0.93433 0.527054 1.38096 
1.33606 0.94656 0.911026 0.517503 0.154388 -0.577937 -0.579934 1.36256 1.31864 
0.9427 0.91693 0.508299 0.150364 -0.580793 -0.577768 1.35875 1.32851 1.04515 
0.965164 0.566193 0.520528 -0.686925 -0.588553 -0.585555 1.35622 1.04137 0.971952 
0.562109 0.527719 -0.690623 -0.601734 -0.588366 1.33858 1.10376 1.07592 0.984458 
0.968005 0.686598 0.551956 0.535126 0.377924 0.370137 0.342699 0.328483 0.311478 
0.294834 -0.599486 -0.591176 1.07673 1.06081 0.980511 0.964058 0.682561 0.55394 
0.536915 0.37786 0.366589 0.339289 0.319374 0.305431 0.289035 -0.607588 -0.593986 
1.07291 1.05699 0.976564 0.96011 0.671155 0.590412 0.573187 0.304724 0.288144 
-0.658376 -0.615965 -0.601888 1.08043 1.05318 0.972616 0.945652 0.674485 0.29237 
0.273192 -0.655042 -0.618916 -0.599607 1.08546 1.05882 1.05398 1.03823 0.968669 
0.941749 0.291522 0.269815 -0.645207 -0.616368 -0.607554 1.05508 0.964722 0.937847 
0.681364 0.282999 0.264166 -0.614001 -0.605228 0.960774 0.933944 0.677231 0.284566 
0.265372 -0.610022 0.233073 0.251482 0.232195 0.267472 0.246807 0.263213 0.30382 
0.286308 0.274117 0.271952 0.282794 0.278241 0.270441 0.251508 0.28896 0.281831 
0.268613 0.250184 1.10665 0.231153 0.175648 1.05418 0.239197 0.207742 0.183632 
0.133502 -0.60454 -0.601131 1.04859 0.200068 0.187001 0.175251 0.1521 0.137828 
-0.607135 -0.598468 1.09144 1.07961 1.05951 -0.604383 -0.600757 1.07046 0.714154 
-0.713039 -0.697242 -0.668513 -0.649314 -0.631896 1.08184 0.717609 0.700026 0.69355 
0.13327 -0.371182 -0.38811 -0.405037 -0.416797 -0.438893 -0.726662 -0.693516 -0.686023 
-0.672073 -0.652559 -0.641097 1.05576 1.04402 0.893856 0.882393 0.884472 0.744841 
0.738917 0.733073 0.703563 0.676065 0.685323 0.173847 0.157285 0.146072 0.134071 
-0.325291 -0.333719 -0.362807 -0.379538 -0.435913 -0.44693 -0.479928 -0.705701 -0.682547 
1.05485 0.923764 0.926373 0.907919 0.84763 0.848981 0.747428 0.730765 0.730419 
0.688007 0.149091 0.13536 0.125473 0.0256585 0.0103537 -0.00592277 -0.0212519 -0.338078 
-0.354618 -0.371158 -0.432203 -0.433159 -0.454081 -0.73591 -0.694333 0.970642 0.95871 
0.931946 0.843814 0.839038 0.755746 0.733305 0.722106 0.701737 0.182355 0.165564 
-0.00233302 -0.0168119 -0.031553 -0.330353 -0.445393 -0.477561 -0.493918 -0.504285 -0.526631 
1.08762 1.02649 0.989287 0.852672 0.84783 0.836631 0.72998 0.693377 0.18934 
0.175316 0.0017437 -0.0141498 -0.02923 -0.322711 -0.441803 -0.719514 -0.687231 1.11948 
1.05548 1.01687 0.855193 0.83779 0.826762 0.760906 0.738386 0.701628 0.191099 
0.175612 -0.0262518 -0.319042 -0.443196 -0.683107 -0.65438 1.13274 1.09002 0.865845 
0.835488 0.769306 0.740926 0.721346 0.194612 0.180789 -0.0222034 -0.311615 -0.450073 
-0.695473 -0.711467 1.15635 1.05227 1.00541 0.868425 0.850496 0.726877 0.72107 
0.715092 0.742419 0.198125 0.18434 -0.0196213 -0.307987 -0.457153 -0.708065 -0.707839 
1.14912 1.08643 1.03778 1.01676 0.879673 0.751503 0.740219 0.728935 0.717652 
0.739142 0.182763 -0.0155987 -0.302774 -0.315565 -0.464423 -0.712519 -0.70421 -0.660093 
1.01956 0.990917 0.947925 0.893962 0.889226 0.759853 0.74848 0.724013 0.187888 
-0.0116634 -0.0419199 -0.304366 -0.466294 -0.483025 -0.708767 -0.717001 1.03469 0.997523 
0.977658 0.943188 0.896604 0.878026 0.768245 0.756782 0.720214 0.691299 0.193179 
-0.0236368 -0.0391236 -0.300697 -0.462498 -0.479229 -0.637478 -0.62416 -0.674083 1.11151 
0.972507 0.938408 0.885472 0.880646 0.776676 0.765124 0.71154 0.683236 0.196692 
-0.0196482 -0.0356103 -0.300669 -0.458702 -0.475434 -0.599762 -0.588941 -0.591277 -0.671199 
-0.651206 -0.632977 1.07852 0.952581 0.941028 0.915445 0.917924 0.913533 0.894819 
0.883267 0.779297 0.773782 0.665235 0.200205 -0.0161725 -0.031493 -0.293359 -0.454906 
-0.465954 -0.587941 -0.668411 1.04762 1.09544 0.955201 0.943649 0.918025 0.920545 
0.916175 0.90453 0.892883 0.781918 0.776424 0.672881 0.188232 0.172745 -0.0433382 
-0.0578061 -0.286216 -0.467842 -0.622092 -0.603668 -0.658118 1.02639 1.0896 0.784539 
0.779066 0.680568 0.193544 0.176258 -0.00922141 -0.0235394 -0.298582 -0.310965 -0.654783 
1.04489 0.787159 0.787808 0.710426 0.193422 0.176516 -0.00672719 -0.0210663 -0.294954 
-0.307375 -0.638128 1.05548 1.10376 1.13841 0.78978 0.78435 0.731147 0.724631 
0.196897 0.178335 -0.00343153 -0.0184966 -0.287962 -0.31103 -0.467485 -0.478393 -0.634858 
-0.617402 1.1413 0.763522 0.757744 0.74587 0.727405 0.709635 0.686383 0.196744 
0.180128 -7.12629e-05 -0.0153714 -0.291187 -0.314875 -0.463733 -0.469092 -0.496812 -0.657579 
-0.651565 -0.620432 1.12513 0.730643 0.73018 0.730041 0.700256 0.200148 0.183497 
-0.0259602 -0.0412806 -0.280782 -0.300062 -0.454615 -0.487328 -0.5096 -0.661463 -0.655143 
1.13735 1.20698 0.757093 0.74581 0.732864 0.703008 0.199934 0.186866 -0.0229904 
-0.0378049 -0.28044 -0.293016 -0.489308 -0.505847 -0.665272 -0.651739 1.14022 1.21007 
0.765905 0.741781 0.723243 0.704919 0.175384 0.161941 -0.0209061 -0.0343294 -0.292806 
-0.485556 -0.508199 -0.676664 -0.677374 1.20235 0.768568 0.744627 0.720055 0.713623 
0.1772 0.162497 -0.0163945 -0.0320475 -0.276511 -0.289177 -0.476196 -0.504403 -0.68084 
-0.673823 1.20541 1.27281 0.771231 0.741698 0.710517 0.182122 0.164436 -0.0128435 
-0.0268477 -0.2506 -0.269555 -0.282247 -0.483876 -0.709889 -0.685401 1.21933 1.32755 
0.779884 0.750134 0.719269 0.706826 0.694382 0.368825 0.351809 0.3411 0.185491 
0.17064 -0.00929246 -0.0229132 -0.0385707 -0.24124 -0.256726 -0.272213 -0.474299 -0.496812 