# vtk DataFile Version 4.2
vtk output
ASCII
DATASET POLYDATA
POINTS 7582 float
-3.74959 0.325561 0.822187 -3.69058 0.347092 0.80801 -3.7758 0.328887 0.815661 
-3.77572 0.343231 0.815753 -3.71575 0.350543 0.801461 -4.14213 0.100553 0.756479 
-4.33518 0.107912 0.779754 -4.37782 0.126611 0.788267 -3.95791 0.139908 0.705913 
-3.85919 0.149866 0.686604 -3.73528 0.157496 0.662329 -4.2093 0.0870877 0.739896 
-4.20921 0.103497 0.74 -4.05888 0.160991 0.711504 -4.05879 0.176752 0.711605 
-4.09592 0.194855 0.718883 -4.16681 0.0696687 0.716738 -4.59308 0.117955 0.797428 
-4.45501 0.165333 0.77176 -4.59267 0.19032 0.797889 -4.59257 0.208411 0.798005 
-4.54545 0.223538 0.789238 -4.3647 0.0583707 0.738277 -4.73503 0.254626 0.808051 
-4.31765 0.0574232 0.714071 -4.68004 0.23281 0.780779 -4.67993 0.251322 0.780897 
-4.48648 0.0616946 0.728349 -4.72529 0.23607 0.771788 -4.62603 0.248091 0.754357 
-2.55481 0.685258 0.391981 -2.51777 0.681913 0.385418 -2.51771 0.69106 0.385477 
-4.72131 0.0675828 0.752641 -4.62132 0.229877 0.736584 -4.57334 0.244931 0.728416 
-2.51531 0.691103 0.376651 -2.59023 0.726586 0.389837 -4.66647 0.0479428 0.726014 
-4.71639 0.0676703 0.73457 -4.47628 0.221055 0.695232 -4.38813 0.232767 0.680463 
-2.50096 0.686999 0.365783 -2.60076 0.73121 0.382925 -2.60071 0.740741 0.382985 
-4.56494 0.0460983 0.692237 -4.56484 0.0641893 0.692353 -4.34142 0.19573 0.656562 
-4.17845 0.20249 0.629803 -2.61127 0.735835 0.375902 -2.61121 0.745423 0.375963 
-4.38 0.0598822 0.645968 -4.65601 0.177704 0.691118 -4.55937 0.190911 0.675706 
-4.33692 0.19581 0.640044 -4.13617 0.200148 0.607861 -4.17358 0.301023 0.614599 
-4.06179 0.3069 0.596703 -2.62282 0.740843 0.368947 -2.62277 0.750492 0.369008 
-4.33319 0.0589304 0.622653 -4.02078 0.303497 0.575555 -2.60622 0.735925 0.357401 
-2.60617 0.745513 0.357462 -3.98201 0.300298 0.555049 -4.05333 0.32297 0.566081 
-2.63071 0.745514 0.352335 -2.60365 0.745558 0.348211 -4.01249 0.303645 0.545142 
-4.0124 0.319405 0.545243 -3.02796 0.600087 0.40123 -2.9901 0.602158 0.395629 
-2.97276 0.609081 0.393107 -2.66916 0.760068 0.349158 -2.60113 0.745603 0.338961 
-4.00834 0.303718 0.529936 -4.00825 0.319479 0.530037 -4.00816 0.335239 0.530137 
-4.08147 0.358925 0.540885 -3.59727 0.614058 0.472857 -3.51521 0.610884 0.460993 
-3.36411 0.592256 0.439059 -3.10185 0.559889 0.400986 -3.02501 0.588686 0.390105 
-3.00553 0.5954 0.387343 -2.93429 0.589072 0.377018 -2.93423 0.600128 0.377089 
-2.68057 0.765078 0.341677 -2.5986 0.745647 0.32971 -4.55629 -3.48115 0.56501 
-3.80349 0.314511 0.486665 -3.77214 0.32601 0.482352 -3.77206 0.340752 0.482446 
-3.77197 0.355494 0.48254 -3.83441 0.377821 0.491455 -3.77181 0.384978 0.482728 
-3.22387 0.563073 0.407176 -3.022 0.58874 0.379054 -2.98423 0.590975 0.373774 
-2.93138 0.589123 0.366351 -2.93132 0.60018 0.366421 -2.69303 0.770471 0.334231 
-2.623 0.755357 0.324302 -4.41562 -3.4549 0.529239 -4.01925 -3.10038 0.477812 
-4.64788 -3.56133 0.560098 -3.76835 0.311337 0.468034 -3.76826 0.326079 0.468128 
-3.73695 0.337302 0.463946 -3.70672 0.348377 0.459909 -3.79924 0.374098 0.472688 
-3.76793 0.385047 0.468504 -3.73662 0.39572 0.464318 -3.35774 0.514726 0.41359 
-3.28771 0.514239 0.404052 -2.70438 0.775482 0.326507 -4.64291 -3.54273 0.542355 
-4.69202 -3.47162 0.549346 -3.73286 0.381184 0.450134 -3.70267 0.39186 0.446223 
-3.70259 0.406332 0.446315 -3.64443 0.412716 0.438682 -3.64435 0.426932 0.438773 
-3.50524 0.475025 0.420746 -3.47936 0.48424 0.417394 -3.47928 0.497731 0.41748 
-3.47921 0.511222 0.417566 -3.47913 0.524714 0.417652 -2.73073 0.78584 0.320689 
-4.68773 -3.58391 0.530557 -3.66994 0.373795 0.428431 -3.64085 0.38435 0.424785 
-3.61177 0.39465 0.421136 -3.61169 0.408738 0.421226 -3.58368 0.418808 0.417714 
-3.58329 0.488633 0.41816 -3.61113 0.507355 0.421855 -3.64005 0.526511 0.425691 
-3.66897 0.545923 0.429529 -3.63989 0.554943 0.425873 -2.71302 0.780541 0.308884 
-4.44695 -3.65179 0.482797 -4.68196 -3.43398 0.513441 -3.60791 0.422892 0.407724 
-3.60783 0.43698 0.407813 -3.60775 0.451068 0.407903 -3.60767 0.465156 0.407993 
-3.63655 0.483929 0.411703 -2.55996 0.793436 0.280568 -2.53526 0.793254 0.277509 
-2.52235 0.797525 0.27594 -4.53444 -3.82445 0.475544 -4.35537 -3.64251 0.455389 
-2.96939 0.591238 0.319317 -2.91684 0.589382 0.313013 -2.91678 0.600438 0.313083 
-2.89958 0.60705 0.311071 -2.88239 0.613511 0.309058 -2.86519 0.619821 0.307044 
-2.55747 0.793481 0.271427 -2.5328 0.793298 0.268473 -2.5199 0.797568 0.266959 
-4.57707 -3.86801 0.463259 -4.48328 -3.76384 0.45315 -2.96648 0.580002 0.308353 
-2.9493 0.587074 0.306417 -2.93105 0.593726 0.304354 -2.91387 0.60049 0.302416 
-2.91381 0.611546 0.302487 -2.87952 0.613562 0.298537 -2.87946 0.624467 0.298606 
-2.82834 0.760518 0.293654 -2.54209 0.797961 0.260829 -2.51746 0.797612 0.257978 
-2.50565 0.802197 0.256645 -2.49384 0.806679 0.255312 -4.12244 0.187077 0.423879 
-4.04854 0.198701 0.415725 -2.43265 0.791789 0.239776 -2.41018 0.791417 0.23727 
-2.39946 0.795778 0.236105 -4.11813 0.187153 0.408047 -4.00799 0.196417 0.396293 
-2.13293 0.455663 0.196889 -2.13289 0.46328 0.196938 -2.13284 0.470897 0.196986 
-2.12427 0.475951 0.196101 -2.12422 0.48353 0.196149 -2.12418 0.49111 0.196198 
-2.12414 0.498689 0.196246 -2.14116 0.511699 0.198164 -2.37485 0.76901 0.225038 
-2.35454 0.769278 0.22286 -2.35449 0.777886 0.222915 -2.35444 0.786493 0.22297 
-4.11381 0.18723 0.392215 -4.0038 0.196491 0.380932 -4.11363 0.220049 0.392425 
-4.15302 0.239376 0.396622 -4.23188 0.262148 0.404917 -4.23179 0.279083 0.405025 
-4.19115 0.292481 0.400925 -4.2316 0.312954 0.405241 -3.79811 0.513602 0.361921 
-3.79803 0.528619 0.362017 -3.79794 0.543636 0.362112 -2.32134 0.764923 0.211334 
-2.31064 0.768862 0.210258 -2.30101 0.773164 0.209294 -2.37212 0.847326 0.217146 
-3.85958 0.447736 0.35345 -3.85949 0.463042 0.353548 -3.82744 0.473565 0.350449 
-3.82736 0.488728 0.350545 -3.76335 0.493758 0.344244 -2.24988 0.752141 0.196219 
-2.24983 0.760303 0.196271 -3.82363 0.443309 0.335625 -3.82354 0.458472 0.335722 
-3.79047 0.468693 0.332656 -3.79038 0.483709 0.332752 -3.75944 0.493827 0.329888 
-2.19354 0.728827 0.183045 -2.185 0.733047 0.182265 -2.16689 0.732984 0.180547 
-3.75611 0.389742 0.314868 -3.75603 0.404621 0.314963 -3.72512 0.415288 0.312235 
-2.13195 0.718532 0.169939 -2.12145 0.714828 0.161794 -2.15427 0.737082 0.164783 
-2.08572 0.700876 0.144525 -2.07983 0.700981 0.122888 -4.50058 -3.33659 0.0256699 
-4.49571 -3.3365 0.00780834 -4.49094 -3.35492 -0.0101712 -4.35324 -3.22496 -0.00939856 
-2.10528 0.710848 0.0147869 -2.11979 0.718218 0.00731294 -2.126 0.721922 -0.000260993 
-4.433 0.0150678 -0.131574 -4.29275 -0.0044866 -0.144187 -4.33678 0.013972 -0.14582 
-3.90142 0.0405046 -0.12839 -4.20276 0.029874 -0.157469 -3.93204 0.0413542 -0.145442 
-2.16166 0.745603 -0.0629344 -2.17082 0.757855 -0.0632638 -4.15721 0.0292331 -0.172358 
-2.16873 0.749769 -0.071154 -2.18604 0.76577 -0.0718994 -4.11277 0.0286085 -0.186936 
-3.9235 0.0415059 -0.176786 -2.15741 0.745679 -0.0785289 -2.19307 0.769978 -0.0802787 
-4.23103 -0.00451511 -0.210745 -4.23093 0.0131733 -0.210632 -4.06844 0.0279822 -0.201158 
-3.95497 0.0423814 -0.194518 -4.26923 -0.00406888 -0.230478 -4.22628 0.0132559 -0.227698 
-4.10377 0.0287685 -0.219972 -4.22173 -0.00434988 -0.244877 -4.22163 0.0133385 -0.244764 
-4.21708 -0.00426726 -0.261943 -4.25972 0.0139856 -0.264881 -3.8174 -3.31741 -0.268691 
-4.43625 -0.0397265 -0.296236 -4.34365 -0.0213587 -0.289087 -2.22973 0.817365 -0.123396 
-2.23881 0.830177 -0.124009 -3.78059 -3.28579 -0.281077 -2.13563 0.725699 -0.124705 
-2.21743 0.804205 -0.130833 -2.21738 0.812627 -0.13078 -2.21733 0.82105 -0.130726 
-3.7764 -3.27011 -0.296037 -2.14262 0.72978 -0.133213 -2.21512 0.821089 -0.138852 
-2.21507 0.829512 -0.138799 -2.21502 0.837934 -0.138745 -2.21497 0.846357 -0.138691 
-2.21493 0.854779 -0.138637 -2.21488 0.863202 -0.138584 -2.19347 0.853624 -0.145043 
-2.19343 0.861956 -0.14499 -2.19338 0.870289 -0.144936 -2.11907 0.730255 -0.1549 
-2.19907 0.875524 -0.161984 -2.18895 0.878699 -0.160962 -2.11701 0.722291 -0.162671 
-2.12502 0.733925 -0.163434 -2.19682 0.883943 -0.170016 -2.12295 0.725924 -0.171242 
-2.13195 0.73805 -0.172148 -2.21371 0.893871 -0.180114 -2.12987 0.730006 -0.179997 
-2.13886 0.742176 -0.180943 -2.2014 0.897128 -0.187127 -2.19232 0.900781 -0.186079 
-2.13677 0.734089 -0.188834 -2.14475 0.745847 -0.189706 -2.21823 0.907148 -0.197439 
-2.21818 0.915661 -0.197385 -3.3252 0.0577715 -0.346348 -2.13463 0.734127 -0.196672 
-2.1426 0.745885 -0.197581 -2.19697 0.897207 -0.20338 -2.21594 0.9157 -0.205598 
-3.39887 0.0462617 -0.369484 -3.34666 0.0586519 -0.362772 -2.13254 0.726041 -0.204562 
-2.22375 0.912481 -0.215108 -2.2137 0.91574 -0.213812 -3.50431 0.0493727 -0.397458 
-3.39508 0.0604157 -0.382987 -2.13041 0.726079 -0.212401 -2.21151 0.907267 -0.222079 
-2.22145 0.92108 -0.223312 -3.58748 0.0518735 -0.423426 -2.12827 0.726117 -0.220239 
-2.2003 0.902579 -0.229092 -2.22917 0.926421 -0.232904 -3.46866 0.0487257 -0.42169 
-2.13411 0.729714 -0.229185 -2.18811 0.897364 -0.235885 -2.21695 0.92116 -0.23983 
-3.41099 0.047281 -0.427787 -2.14092 0.733756 -0.238347 -2.18589 0.897404 -0.244011 
-2.21469 0.9212 -0.248089 -3.35444 0.045862 -0.433541 -3.38026 0.0606789 -0.437357 
-2.14771 0.737798 -0.247591 -2.18368 0.897443 -0.252138 -2.22238 0.926542 -0.257818 
-3.30001 0.0444968 -0.439121 -3.32481 0.0590398 -0.442902 -2.17334 0.750294 -0.259808 
-2.18146 0.897482 -0.260264 -2.22012 0.926582 -0.266122 -3.19977 0.0816298 -0.436649 
-2.17118 0.741953 -0.267947 -2.18997 0.758787 -0.270871 -2.17925 0.897522 -0.26839 
-2.20794 0.92132 -0.272865 -3.17345 0.0807187 -0.445678 -2.18779 0.750357 -0.279097 
-2.19666 0.762831 -0.280494 -2.17703 0.897561 -0.276517 -2.20569 0.92136 -0.281124 
-3.14826 0.0667983 -0.454748 -3.10358 0.0779443 -0.447086 -2.19447 0.754358 -0.288762 
-2.20431 0.767321 -0.290366 -2.1847 0.902856 -0.286296 -2.19355 0.916098 -0.28773 
[...]
POINT_DATA 7582
SCALARS z_coord float
LOOKUP_TABLE default
0.822187 0.80801 0.815661 0.815753 0.801461 0.756479 0.779754 0.788267 0.705913 
0.686604 0.662329 0.739896 0.74 0.711504 0.711605 0.718883 0.716738 0.797428 
0.77176 0.797889 0.798005 0.789238 0.738277 0.808051 0.714071 0.780779 0.780897 
0.728349 0.771788 0.754357 0.391981 0.385418 0.385477 0.752641 0.736584 0.728416 
0.376651 0.389837 0.726014 0.73457 0.695232 0.680463 0.365783 0.382925 0.382985 
0.692237 0.692353 0.656562 0.629803 0.375902 0.375963 0.645968 0.691118 0.675706 
0.640044 0.607861 0.614599 0.596703 0.368947 0.369008 0.622653 0.575555 0.357401 
0.357462 0.555049 0.566081 0.352335 0.348211 0.545142 0.545243 0.40123 0.395629 
0.393107 0.349158 0.338961 0.529936 0.530037 0.530137 0.540885 0.472857 0.460993 
0.439059 0.400986 0.390105 0.387343 0.377018 0.377089 0.341677 0.32971 0.56501 
0.486665 0.482352 0.482446 0.48254 0.491455 0.482728 0.407176 0.379054 0.373774 
0.366351 0.366421 0.334231 0.324302 0.529239 0.477812 0.560098 0.468034 0.468128 
0.463946 0.459909 0.472688 0.468504 0.464318 0.41359 0.404052 0.326507 0.542355 
0.549346 0.450134 0.446223 0.446315 0.438682 0.438773 0.420746 0.417394 0.41748 
0.417566 0.417652 0.320689 0.530557 0.428431 0.424785 0.421136 0.421226 0.417714 
0.41816 0.421855 0.425691 0.429529 0.425873 0.308884 0.482797 0.513441 0.407724 
0.407813 0.407903 0.407993 0.411703 0.280568 0.277509 0.27594 0.475544 0.455389 
0.319317 0.313013 0.313083 0.311071 0.309058 0.307044 0.271427 0.268473 0.266959 
0.463259 0.45315 0.308353 0.306417 0.304354 0.302416 0.302487 0.298537 0.298606 
0.293654 0.260829 0.257978 0.256645 0.255312 0.423879 0.415725 0.239776 0.23727 
0.236105 0.408047 0.396293 0.196889 0.196938 0.196986 0.196101 0.196149 0.196198 
0.196246 0.198164 0.225038 0.22286 0.222915 0.22297 0.392215 0.380932 0.392425 
0.396622 0.404917 0.405025 0.400925 0.405241 0.361921 0.362017 0.362112 0.211334 
0.210258 0.209294 0.217146 0.35345 0.353548 0.350449 0.350545 0.344244 0.196219 
0.196271 0.335625 0.335722 0.332656 0.332752 0.329888 0.183045 0.182265 0.180547 
0.314868 0.314963 0.312235 0.169939 0.161794 0.164783 0.144525 0.122888 0.0256699 
0.00780834 -0.0101712 -0.00939856 0.0147869 0.00731294 -0.000260993 -0.131574 -0.144187 -0.14582 
-0.12839 -0.157469 -0.145442 -0.0629344 -0.0632638 -0.172358 -0.071154 -0.0718994 -0.186936 
-0.176786 -0.0785289 -0.0802787 -0.210745 -0.210632 -0.201158 -0.194518 -0.230478 -0.227698 
-0.219972 -0.244877 -0.244764 -0.261943 -0.264881 -0.268691 -0.296236 -0.289087 -0.123396 
-0.124009 -0.281077 -0.124705 -0.130833 -0.13078 -0.130726 -0.296037 -0.133213 -0.138852 
-0.138799 -0.138745 -0.138691 -0.138637 -0.138584 -0.145043 -0.14499 -0.144936 -0.1549 
-0.161984 -0.160962 -0.162671 -0.163434 -0.170016 -0.171242 -0.172148 -0.180114 -0.179997 
-0.180943 -0.187127 -0.186079 -0.188834 -0.189706 -0.197439 -0.197385 -0.346348 -0.196672 
-0.197581 -0.20338 -0.205598 -0.369484 -0.362772 -0.204562 -0.215108 -0.213812 -0.397458 
-0.382987 -0.212401 -0.222079 -0.223312 -0.423426 -0.220239 -0.229092 -0.232904 -0.42169 
-0.229185 -0.235885 -0.23983 -0.427787 -0.238347 -0.244011 -0.248089 -0.433541 -0.437357 
-0.247591 -0.252138 -0.257818 -0.439121 -0.442902 -0.259808 -0.260264 -0.266122 -0.436649 
-0.267947 -0.270871 -0.26839 -0.272865 -0.445678 -0.279097 -0.280494 -0.276517 -0.281124 
-0.454748 -0.447086 -0.288762 -0.290366 -0.286296 -0.28773 -0.459554 -0.441309 -0.444689 
-0.295441 -0.296921 -0.292769 -0.294414 -0.47194 -0.446113 -0.442662 -0.300288 -0.301809 
-0.300896 -0.300842 -0.4614 -0.457681 -0.306577 -0.309935 -0.307411 -0.307357 -0.465781 
-0.462159 -0.316404 -0.317148 -0.317095 -0.473785 -0.470077 -0.322603 -0.327211 -0.496688 
-0.488977 -0.4889 -0.488823 -0.488746 -0.328903 -0.33172 -0.508503 -0.516437 -0.512352 
-0.496656 -0.492775 -0.336901 -0.337831 -0.528276 -0.51202 -0.508053 -0.496513 -0.344899 
-0.345871 -0.523579 -0.504039 -0.503965 -0.496568 -0.351035 -0.350982 -0.352792 -0.356029 
-0.363829 -0.613438 -0.523024 -0.5191 -0.511328 -0.360896 -0.35894 -0.364114 -0.374264 
-0.605468 -0.605384 -0.518744 -0.370787 -0.370733 -0.376297 -0.374383 -0.613111 -0.608096 
-0.37684 -0.378773 -0.384469 -0.605448 -0.600564 -0.48682 -0.386866 -0.386812 -0.386759 
-0.388423 -0.392641 -0.386579 -0.617733 -0.602957 -0.593549 -0.584377 -0.398573 -0.400813 
-0.587054 -0.578181 -0.496897 -0.496832 -0.406699 -0.411091 -0.506548 -0.487496 -0.591954 
-0.49993 -0.499867 -0.499804 -0.598808 -0.509409 -0.512597 -0.512534 -0.440738 -0.438207 
-0.430971 -0.522073 -0.512335 -0.505909 -0.436827 -0.434252 -0.43193 -0.429608 -0.431824 
-0.439621 -0.439567 -0.441772 -0.444118 -0.446518 -0.528242 -0.5217 -0.51516 -0.447224 
-0.442292 -0.439928 -0.437565 -0.437513 -0.450094 -0.452596 -0.468845 -0.521246 -0.514857 
-0.511897 -0.447874 -0.447821 -0.445417 -0.447715 -0.452624 -0.447028 -0.449268 -0.449215 
-0.449162 -0.449056 -0.449003 -0.451555 -0.451501 -0.448843 -0.44879 -0.451341 -0.451288 
-0.451234 -0.451181 -0.451127 -0.466847 -0.469385 -0.517774 -0.517715 -0.514705 -0.511697 
-0.45348 -0.453427 -0.453374 -0.455713 -0.460709 -0.455238 -0.460068 -0.457361 -0.488962 
-0.488905 -0.51442 -0.514362 -0.514304 -0.458742 -0.463553 -0.461069 -0.46858 -0.47609 
-0.514263 -0.517257 -0.517199 -0.514092 -0.503217 -0.50316 -0.525993 -0.522835 -0.522778 
-0.522721 -0.509019 -0.511739 -0.525393 -0.525337 -0.522417 -0.570204 -0.573556 -0.570081 
-0.556084 -0.549483 -0.552836 -0.517609 -0.517552 -0.517496 -0.519268 -0.536785 -0.555463 
-0.555404 -0.548698 -0.545461 -0.545403 -0.523274 -0.523218 -0.526029 -0.513389 -0.542126 
-0.5453 -0.548474 -0.554585 -0.557757 -0.557699 -0.541502 -0.538511 -0.512181 -0.503915 
-0.506502 -0.493547 -0.505746 -0.508384 -0.508331 -0.508279 -0.508227 -0.508174 -0.508122 
-0.510758 -0.513394 -0.510653 -0.515976 -0.515923 -0.518855 -0.518802 -0.52442 -0.527053 
-0.529983 -0.526944 -0.535543 -0.54073 -0.537695 -0.529 -0.50918 -0.503768 -0.498602 
-0.529453 -0.53214 -0.529239 -0.519084 -0.521762 -0.52171 -0.518926 -0.518873 -0.518821 
-0.518768 -0.518716 -0.518663 -0.51861 -0.521287 -0.523962 -0.523909 -0.523856 -0.529561 
-0.52678 -0.532484 -0.541217 -0.546918 -0.537368 -0.531566 -0.531512 -0.537095 -0.519806 
-0.514311 -0.511538 -0.495768 -0.543249 -0.540105 -0.537271 -0.531347 -0.531294 -0.517186 
-0.517135 -0.517083 -0.519808 -0.519756 -0.519705 -0.519653 -0.519601 -0.519549 -0.521964 
-0.521912 -0.52186 -0.524582 -0.52453 -0.521704 -0.516413 -0.516361 -0.521548 -0.516907 
-0.516855 -0.511281 -0.539292 -0.536418 -0.539187 -0.536313 -0.536261 -0.536208 -0.536155 
-0.536103 -0.53605 -0.533179 -0.559431 -0.553334 -0.544376 -0.541461 -0.544271 -0.547079 
-0.549888 -0.549835 -0.55296 -0.546868 -0.541095 -0.549288 -0.549258 -0.550361 -0.550331 
-0.548625 -0.550308 -0.550279 -0.549695 -0.549666 -0.549636 -0.551246 -0.551216 -0.54952 
-0.549491 -0.549462 -0.549242 -0.550383 -0.550354 -0.551839 -0.117021 -0.55322 -0.558802 
-0.557576 -0.557548 -0.562192 -0.560124 -0.560095 -0.56179 -0.562968 -0.564748 -0.564719 
-0.559576 -0.559547 -0.561257 -0.562444 -0.562416 -0.562387 -0.554451 -0.554424 -0.554091 
-0.554064 -0.551748 -0.551721 -0.551864 -0.5526 -0.553944 -0.553278 -0.553252 -0.55321 
-0.554926 -0.55606 -0.557387 -0.557182 -0.557157 -0.558494 -0.558243 -0.556507 -0.557862 
-0.556112 -0.557477 -0.556063 -0.558434 -0.557011 -0.55419 -0.557971 -0.556539 -0.556515 
-0.560287 -0.560262 -0.560238 -0.560214 -0.562511 -0.562487 -0.561037 -0.560436 -0.562118 
-0.558173 -0.55815 -0.554822 -0.557482 -0.557843 -0.558935 -0.562317 -0.562295 -0.564967 
-0.564945 -0.562091 -0.562069 0.294478 0.271485 0.386468 0.357952 0.342288 0.328978 
0.319774 0.312442 0.301366 0.292163 0.281388 0.270726 0.261634 0.256858 0.233053 
0.22107 0.211746 0.20357 0.163309 -0.131972 -0.140706 -0.596746 -0.573278 0.256022 
0.249567 0.237373 0.160165 0.152622 -0.133398 -0.143162 -0.152925 -0.162689 -0.171061 
-0.629799 -0.59159 -0.571948 0.624404 0.61887 0.609666 0.157864 0.149474 -0.190402 
-0.200433 -0.21208 -0.565762 -0.567162 0.639296 0.634252 0.622103 0.616555 0.603807 
0.155563 0.146415 -0.191902 -0.203957 -0.216356 -0.585837 -0.57663 0.633497 0.603483 
0.597977 0.169761 0.161567 -0.254913 -0.259303 -0.269842 -0.278261 -0.573879 -0.561655 
-0.560003 0.608353 0.588658 0.586598 0.584313 0.167488 0.15928 -0.273341 -0.283032 
-0.579358 -0.567108 -0.562047 0.598937 0.589901 0.584311 0.578608 0.165215 0.156993 
-0.305799 -0.316653 -0.324989 -0.589965 -0.595056 -0.581523 -0.572585 -0.564092 0.582024 
0.579682 0.17289 -0.346861 -0.358223 -0.369585 -0.374794 -0.37365 -0.381579 -0.599918 
-0.601204 0.576319 0.570644 0.170603 -0.373661 -0.385393 -0.39031 -0.385614 -0.393447 
-0.594483 -0.595628 0.643647 0.646333 0.580853 0.188491 0.178347 0.168316 -0.408282 
-0.419919 -0.431557 -0.447004 -0.447198 -0.576597 -0.574383 -0.576085 -0.580962 0.640223 
0.638805 0.618538 0.593346 0.580809 0.575162 0.572737 0.176046 0.165159 -0.409939 
-0.425572 -0.433782 -0.453522 -0.461633 -0.578815 -0.572971 -0.578238 -0.576022 0.653256 
0.628984 0.605446 0.587572 0.578536 0.57625 0.570421 -0.495598 -0.498768 -0.514445 
-0.517356 -0.577185 -0.575136 0.606939 0.616048 0.610541 0.594335 0.592245 0.583097 
-0.530701 -0.537982 -0.545074 -0.556711 -0.536737 -0.530966 -0.57226 -0.573985 0.620728 
0.608121 0.61376 0.608239 0.599092 0.589944 0.577393 -0.56758 -0.572509 0.607831 
-0.54704 -0.577319 -0.57887 0.626256 0.609241 -0.543351 -0.54973 -0.54369 -0.572271 
-0.573688 0.620065 0.61062 -0.563115 -0.556691 -0.578002 -0.583305 0.617689 0.608244 
-0.570324 -0.57214 -0.582756 -0.588859 -0.582657 0.605868 -0.570432 -0.585427 -0.596043 
-0.581152 0.615103 0.605468 0.592004 -0.592573 -0.603267 -0.589376 -0.594788 0.601035 
0.591272 0.163929 -0.604503 -0.610784 -0.59573 -0.604995 0.606172 0.596279 0.160708 
-0.592791 -0.606169 -0.607325 0.61578 0.597754 0.583898 0.570418 0.158393 -0.619737 
-0.599145 0.611278 0.585286 0.571516 0.155279 -0.617738 -0.609554 0.606662 0.588218 
0.5703 0.546517 0.152978 -0.611945 0.565158 0.54756 0.537461 0.523932 0.152277 
0.141529 -0.60911 -0.614336 0.570271 0.55234 0.53492 0.52482 0.151575 0.141436 
-0.587768 -0.610128 0.546881 0.52928 0.519038 0.508797 0.505328 0.149214 0.13909 
-0.58602 -0.591859 -0.604355 -0.605588 0.578381 0.555682 0.537679 0.527213 0.520189 
-0.588508 -0.594332 -0.606762 -0.603925 0.52587 0.167837 0.158142 -0.586976 -0.58046 
0.531045 0.519408 0.515635 0.503809 0.491982 0.483803 0.471882 0.45996 0.448039 
0.186991 0.174158 0.165398 0.155703 -0.574936 0.536314 0.520484 0.516569 0.504647 
0.489007 0.47718 0.465353 0.453527 0.4417 0.429873 0.185568 0.171735 0.1621 
-0.573468 0.501648 0.486032 -0.57197 0.498649 0.479385 -0.590089 0.488166 0.472787 
0.461149 0.359922 0.34856 0.337198 -0.589509 0.488933 0.469859 0.354545 0.343269 
-0.587927 -0.589453 0.485958 0.466932 0.349211 0.338022 -0.590383 -0.591876 0.479313 
0.464005 0.343921 0.332817 -0.605372 0.796469 0.770645 0.75181 0.472715 0.454134 
0.341128 0.327657 -0.607878 0.773543 0.75499 0.742663 0.469787 0.454622 0.338335 
0.327231 0.313868 0.305025 -0.586204 -0.600422 0.751852 0.654152 0.652625 0.692244 
0.702583 0.690257 0.683408 0.538001 0.521542 0.5015 0.489579 0.470459 0.458727 
0.30897 0.30008 0.2871 0.274284 0.259927 -0.584686 -0.598585 0.66361 0.614179 
0.603791 0.665402 0.67483 0.539241 0.526914 0.506374 0.490417 0.474658 0.455776 
0.300013 0.289319 0.276785 0.266168 0.252276 -0.601074 0.659006 0.640094 0.559625 
0.572718 0.261755 0.251216 0.239177 0.228712 0.218246 -0.617672 0.663424 0.653325 
0.573891 0.5674 0.219774 0.207745 0.198386 0.660884 0.650784 0.571296 0.564786 
0.217084 0.20639 0.197004 0.678542 0.673109 0.205069 0.194293 -0.610395 -0.595534 
0.704995 0.689887 0.674924 0.202359 -0.593731 0.672347 0.199648 0.190052 -0.638883 
-0.615697 0.673409 0.667407 0.166677 -0.600212 0.689916 0.67914 0.171552 0.697001 
0.686065 0.67513 0.167817 0.69425 0.69343 0.672379 0.163154 0.680564 0.664803 
0.658693 0.65242 0.158567 -0.591601 0.655943 0.649649 0.64823 0.155972 -0.603254 
0.653192 0.646877 0.640638 0.152465 -0.596637 0.633089 0.622072 0.615638 -0.59475 
0.630318 0.623949 0.621969 -0.606555 -0.594493 0.625782 0.633208 0.616988 0.592214 
-0.595711 -0.584105 0.633389 0.607219 0.58673 0.175394 0.16002 -0.581625 0.673719 
0.650703 0.618587 0.597435 0.174855 0.160339 0.620345 0.599147 0.26081 0.248983 
0.170881 0.158576 -0.609927 0.637468 0.610249 0.257835 0.246008 0.16695 0.155761 
-0.598617 -0.595776 0.639479 0.62705 0.25486 0.241285 0.165208 0.153933 -0.596768 
-0.585072 0.64716 0.6397 0.251885 0.234884 0.163423 0.152061 -0.610742 -0.602514 
-0.586017 0.672016 0.24891 0.233682 0.160565 0.149203 -0.579983 1.205 0.66869 
0.220699 0.205992 0.155691 0.144502 -0.605182 -0.589644 -0.586901 1.2672 1.20123 
0.683308 0.217748 0.201692 0.150905 0.139888 -0.579986 -0.579181 -0.572567 1.22473 
1.17354 1.20758 0.726321 0.712061 0.187359 1.3185 1.27497 0.79667 0.781519 
0.758779 0.729122 0.503632 0.201529 0.18706 0.173026 0.158437 -0.613626 1.24741 
1.2199 0.809233 0.777708 0.762556 0.732615 0.51005 0.489124 0.198554 0.186727 
0.172496 1.27173 0.80534 0.781774 0.506072 0.470863 0.451302 0.436305 0.171925 
-0.609339 1.22976 1.21492 0.801448 0.785973 0.472842 0.471703 0.470474 0.441081 
0.17252 -0.62207 1.28143 1.24087 1.22603 1.21119 0.773682 0.758686 0.466497 
0.441637 -0.603865 1.26682 1.25198 1.23714 1.22031 0.76991 0.754913 0.46252 
0.437745 -0.61651 1.25051 1.24824 1.22113 0.78977 0.766368 0.458542 0.438178 
0.410162 -0.584747 -0.609408 1.30224 1.2615 1.25935 0.777828 0.770402 0.434244 
0.402967 0.39941 0.152459 0.125658 0.114074 -0.598016 -0.604569 1.31164 1.27046 
1.25562 0.766179 0.758665 0.43031 0.414672 0.403156 0.399591 0.136768 0.123377 
1.32469 1.30969 1.2947 0.778092 0.754814 0.739503 0.716913 0.411825 0.39128 
1.33432 1.31917 0.735651 0.72034 0.375024 -0.616643 1.33051 1.31536 0.739357 
0.716489 0.374834 0.0520821 0.0392966 0.0269522 -0.604639 1.3267 1.32508 0.727948 
0.719989 0.704515 0.68904 0.673565 0.395609 0.374641 -0.0250144 -0.0367127 -0.0488322 
-0.591456 -0.583807 1.33654 1.33508 0.714369 0.69821 0.378537 1.33269 1.33119 
0.374232 1.32883 1.3273 1.31182 1.29635 1.28087 -0.195702 -0.208804 -0.582158 
-0.579265 1.33888 1.3516 1.3215 1.30586 1.29022 0.365624 -0.584995 -0.573021 
1.316 1.30019 1.27065 1.26857 1.25276 -0.592511 -0.599107 1.2781 1.26212 
1.24613 1.23015 1.21417 -0.582158 -0.603856 -0.615588 1.26967 1.21318 1.19737 
1.18156 -0.605088 -0.611908 -0.618539 -0.59035 1.0893 1.21349 -0.558084 -0.579403 
-0.591229 -0.592996 -0.609758 1.12573 1.251 -0.565781 -0.577513 -0.574593 -0.586045 
-0.612709 1.23255 1.16257 1.13415 -0.491017 -0.511902 -0.55929 -0.561699 -0.568733 
-0.585353 1.18449 1.15515 -0.588912 1.18033 1.1638 -0.603567 -0.60531 -0.601495 
-0.592677 1.20287 0.780042 0.754669 0.721967 0.690553 0.67457 -0.593317 -0.601465 
-0.591565 -0.59358 0.741962 0.733251 -0.590895 -0.587154 -0.589289 -0.591317 1.16555 
-0.606723 -0.590606 1.1142 -0.628244 -0.604078 -0.58823 1.16774 1.06488 1.09928 
-0.623653 -0.618612 -0.59544 -0.59165 -0.620715 -0.615773 -0.581476 -0.624527 -0.588491 
-0.57369 -0.66248 -0.655623 -0.658848 -0.644911 -0.612168 -0.634574 -0.591071 -0.628284 
-0.629843 -0.663523 0.0957746 0.0509398 0.034957 -0.674806 -0.667634 0.122545 0.106376 
0.091923 -0.663109 -0.641644 0.115815 0.101769 0.0867724 -0.667267 -0.631546 0.0979965 
-0.670657 -0.683108 0.118495 -0.671099 0.115723 -0.675305 -0.679511 0.374217 0.354416 
0.356688 0.343464 0.319446 0.126206 0.38626 0.361538 0.348679 0.33916 0.311948 
0.123398 0.109727 0.369078 0.288275 0.269131 0.250478 0.236812 0.124698 0.0846628 
0.0687188 0.446026 0.428914 0.407323 0.394692 0.124031 0.0801783 0.0644504 0.419981 
0.407499 0.390387 0.373276 0.352328 0.148955 0.136397 0.0763268 0.0610158 0.0454873 
0.420306 0.398813 0.3819 0.361089 0.35186 0.147738 0.133719 0.0719792 0.0571642 
0.0416759 0.356883 0.143926 0.128774 0.0380017 0.0227129 0.00737958 0.140115 0.12818 
0.0189014 0.00352805 0.134022 0.122165 0.0150899 -6.18212e-05 0.101397 0.0864 0.126555 
0.113529 0.124869 0.109717 0.125243 0.106759 0.119217 0.101304 -0.692141 -0.68431 
0.113435 0.0946491 0.110515 0.0916796 0.107539 0.0886572 -0.687943 0.108078 -0.675136 
-0.683946 -0.671287 -0.68003 -0.650797 -0.644331 -0.668345 -0.647297 -0.675243 -0.679547 
0.116098 -0.659771 -0.638387 -0.655106 -0.66393 -0.667724 -0.65521 -0.648597 -0.645537 
-0.629476 -0.592746 -0.609465 -0.633731 -0.573375 -0.57613 -0.599362 -0.608449 -0.567719 
-0.577533 -0.601158 -0.558551 -0.304841 -0.317492 -0.569319 -0.543912 -0.557779 -0.574692 
-0.570543 -0.587456 -0.677426 -0.610322 -0.624062 -0.641531 -0.630394 -0.626434 -0.622672 
-0.623691 -0.629757 -0.635662 -0.631859 -0.625408 -0.609038 -0.615208 -0.621208 -0.627293 
-0.61892 -0.615728 -0.612125 -0.608911 -0.614616 -0.629415 -0.634975 -0.642845 -0.63913 
-0.640536 -0.641389 -0.603169 -0.59922 -0.606745 -0.612664 -0.620944 -0.622559 -0.633041 
-0.616794 -0.624 -0.609328 -0.60505 -0.606829 -0.597106 -0.609762 -0.605993 -0.601577 
-0.603287 -0.599707 -0.602657 -0.60952 -0.616675 -0.618327 -0.619552 -0.621036 -0.622362 
-0.618307 0.265045 0.251205 0.263337 0.249842 0.906456 0.286766 0.332848 -0.179479 
-0.186704 -0.195242 -0.203644 0.342607 -0.164349 -0.17169 -0.181592 -0.199844 0.327266 
0.302325 -0.194633 -0.569922 0.333521 0.310788 -0.16209 -0.189577 -0.199152 -0.207274 
0.336759 0.31117 -0.157543 -0.187405 -0.195601 -0.203575 0.333865 -0.201431 0.33113 
-0.197876 -0.585061 -0.586515 0.331357 -0.192951 -0.580144 0.328803 -0.204989 0.331833 
-0.194732 0.331986 -0.174043 -0.18276 -0.191477 -0.200195 -0.173216 -0.17958 0.357334 
-0.172367 -0.178805 -0.577875 0.937742 -0.153838 -0.167379 -0.177792 -0.180463 0.91839 
0.921071 -0.163007 -0.173203 -0.179714 -0.552238 -0.556709 0.909314 0.324713 0.299461 
-0.534346 0.295722 0.278853 -0.528136 -0.53267 -0.540057 0.373696 0.874171 -0.545443 
-0.555897 -0.563438 0.332268 0.314256 -0.561727 -0.555409 -0.562988 0.346219 -0.566039 
-0.567524 -0.562844 -0.586222 -0.567128 -0.581107 -0.60889 -0.571709 -0.569965 -0.600293 
0.80096 -0.546825 -0.588683 -0.54504 -0.59336 -0.546328 -0.578781 -0.599378 -0.538406 
-0.549339 -0.592295 -0.583862 -0.582102 -0.53663 -0.544457 -0.58094 -0.579045 -0.526025 
-0.536507 -0.575621 -0.524278 -0.53475 -0.568014 -0.57841 -0.585652 -0.519505 -0.527165 
-0.560789 -0.579596 -0.577924 -0.520783 -0.528485 -0.571949 -0.576297 -0.52174 -0.53253 
-0.568975 -0.573194 -0.574429 -0.544711 -0.571591 -0.547477 -0.558592 -0.565212 -0.555012 
-0.563188 -0.556948 -0.566772 -0.572189 -0.550147 -0.561333 -0.573216 -0.577499 -0.575679 
-0.554603 -0.562826 -0.559295 -0.571651 -0.572961 -0.571506 -0.569183 -0.580836 -0.571411 
-0.572607 -0.560879 -0.572121 -0.572825 -0.576694 -0.577841 -0.579243 -0.555671 -0.567167 
-0.554636 -0.575143 -0.573658 -0.577721 -0.544392 -0.558834 -0.566472 -0.576199 -0.577123 
0.749345 -0.536513 -0.547462 -0.573233 -0.571633 -0.581386 0.756709 0.756715 0.75179 
0.746728 0.741531 -0.550466 -0.552024 -0.578467 -0.58255 0.763734 0.758961 0.754052 
0.744081 0.743824 -0.545578 -0.550258 -0.586763 -0.585051 -0.583153 0.774289 0.769877 
0.765346 0.765377 0.77045 0.765699 -0.543802 -0.548492 -0.578416 -0.582165 -0.580441 
-0.578919 -0.538943 -0.546727 -0.582007 -0.577425 -0.581256 -0.582242 -0.534103 -0.539039 
-0.580485 -0.587195 -0.579768 -0.578386 -0.544994 -0.552697 -0.589248 -0.584837 -0.580588 
-0.578939 -0.546073 -0.553814 -0.576332 -0.577497 -0.550577 -0.558404 -0.585631 -0.576055 
-0.555043 -0.595275 -0.590676 -0.589086 -0.587325 -0.556359 -0.588218 -0.589196 -0.582361 
-0.585883 -0.565652 -0.570463 -0.580913 -0.595462 -0.599045 0.261231 0.249424 -0.57042 
-0.578506 -0.592235 -0.598621 -0.599547 0.264322 0.253666 -0.578584 -0.583323 -0.587913 
-0.599661 -0.609005 0.268836 0.25807 -0.576718 -0.584941 -0.589644 -0.5842 -0.598206 
-0.607544 0.384834 0.272105 0.261272 -0.574853 -0.579613 -0.587789 -0.585943 -0.583541 