# vtk DataFile Version 4.2
vtk output
ASCII
DATASET POLYDATA
POINTS 5392 float
-3.51252 0.666595 0.814661 -3.32562 -0.808375 0.743748 -3.50898 0.679811 0.802053 
-3.44035 -0.993466 0.759981 -3.49048 -0.996301 0.772529 -3.25657 -0.790843 0.715478 
-3.2777 -0.784319 0.720825 -3.31479 0.536763 0.740418 -3.48106 0.674195 0.783181 
-3.38913 -0.990861 0.735801 -3.23224 -0.78516 0.698658 -3.25333 -0.778726 0.703918 
-2.63069 -0.437187 0.552829 -2.59278 -0.421083 0.543593 -2.54262 -0.40319 0.531347 
-2.55482 -0.396206 0.534413 -2.61823 -0.39751 0.550061 -3.22487 0.519645 0.706978 
-3.50214 0.666779 0.776584 -3.47762 0.674256 0.770589 -3.33906 -0.975778 0.712363 
-3.20794 -0.779477 0.682013 -3.20788 -0.767597 0.682088 -2.64156 -0.43956 0.546969 
-2.57811 -0.418877 0.531705 -2.60253 -0.413894 0.537679 -2.60248 -0.404586 0.537738 
-2.62801 -0.399474 0.543983 -2.71025 -0.403206 0.563947 -2.84365 -0.414194 0.596289 
-2.89252 -0.411259 0.608192 -2.90803 -0.403003 0.612026 -3.55084 0.678749 0.776663 
-3.49861 0.679995 0.763976 -4.79519 2.66955 1.09457 -3.62217 2.41267 0.807436 
-3.31369 -0.993247 0.694943 -3.31362 -0.980907 0.695022 -3.35914 -0.983232 0.705894 
-3.20469 -0.755661 0.670701 -3.20462 -0.74378 0.670777 -2.66585 -0.463524 0.544047 
-2.93974 -0.418779 0.609919 -2.95634 -0.410473 0.613954 -2.93962 -0.397263 0.610056 
-2.93956 -0.386505 0.610124 -3.21851 0.531728 0.683955 -3.19738 0.539334 0.678959 
-3.60053 0.690975 0.776579 -3.54724 0.692189 0.763841 -4.79016 2.68836 1.07662 
-4.54624 2.64287 1.01791 -4.5008 2.63094 1.00695 -4.50071 2.64843 1.00706 
-4.50061 2.66593 1.00717 -4.24729 2.51474 0.945401 -4.28811 2.55858 0.955506 
-4.50031 2.71841 1.00751 -3.28823 -0.985847 0.677864 -3.24484 -0.959467 0.667855 
-3.37916 -0.990684 0.699232 -3.22266 -0.761051 0.664162 -2.73325 -0.476761 0.551152 
-2.90245 -0.402904 0.59155 -2.91904 -0.394674 0.595517 -2.87016 -0.377217 0.584146 
-3.27959 0.544834 0.687624 -3.68125 0.682368 0.78323 -3.62471 0.68365 0.769929 
-3.62463 0.697374 0.770016 -3.51715 0.686056 0.744631 -4.73452 2.63823 1.04622 
-4.78524 2.68845 1.05855 -4.40894 2.57395 0.96909 -4.4961 2.64851 0.990182 
-4.3237 2.55184 0.948855 -4.16677 2.46399 0.911239 -3.56093 2.35788 0.767817 
-3.3072 -0.993132 0.67113 -3.35261 -0.995649 0.681626 -3.21951 -0.760995 0.652612 
-2.76069 -0.502434 0.548372 -2.71629 -0.483799 0.538235 -2.71623 -0.473974 0.538298 
-2.8996 -0.392244 0.58138 -2.8674 -0.377168 0.574041 -2.85072 -0.364456 0.570276 
-2.85066 -0.354053 0.570342 -3.48875 0.588095 0.725312 -3.70634 0.688776 0.776462 
-3.6775 0.696398 0.769845 -3.64867 0.703774 0.763226 -3.48823 0.680179 0.725899 
-4.67989 2.62582 1.01674 -4.67979 2.64412 1.01686 -4.58368 2.60162 0.994284 
-4.53724 2.58997 0.983441 -4.40473 2.52267 0.952245 -3.55739 2.35794 0.754801 
-3.23863 -0.983476 0.644428 -3.39593 -1.02354 0.679931 -3.30388 -0.980734 0.659303 
-3.23741 -0.766384 0.645813 -3.19525 -0.743613 0.636389 -2.78685 -0.508114 0.545221 
-2.7425 -0.489356 0.535268 -2.83249 -0.362319 0.556727 -2.84792 -0.354005 0.560306 
-3.73254 0.681214 0.76962 -3.76229 0.702018 0.776552 -3.70255 0.70293 0.76296 
-2.34888 0.655475 0.454431 -2.31903 0.652957 0.447616 -2.31898 0.661119 0.447668 
-3.58027 2.37818 0.747956 -3.27864 -0.997921 0.642342 -3.32285 -1.00036 0.652216 
-3.21429 -0.952414 0.628292 -3.23424 -0.766327 0.634176 -3.19212 -0.743558 0.624926 
-2.78418 -0.508067 0.53544 -2.7255 -0.486509 0.522473 -2.84525 -0.364359 0.550202 
-2.82971 -0.351934 0.54682 -2.82965 -0.341598 0.546886 -2.46479 0.68025 0.473046 
-2.46474 0.689046 0.473102 -2.40955 0.678063 0.46067 -3.57669 2.37825 0.73483 
-3.31979 -1.0376 0.639981 -3.31972 -1.02517 0.64006 -3.34287 -1.02054 0.645186 
-3.16806 -0.749939 0.608811 -3.168 -0.738149 0.608886 -2.79704 -0.521306 0.528972 
-2.78152 -0.50802 0.525659 -2.7229 -0.486462 0.512935 -2.84239 -0.343505 0.540298 
-2.87547 -0.33715 0.547619 -2.84228 -0.322699 0.540431 -2.53187 0.704618 0.480002 
-3.52037 2.33795 0.709797 -3.36291 -1.05356 0.637882 -3.16496 -0.749884 0.597435 
-3.20685 -0.748801 0.60649 -2.80987 -0.534677 0.522375 -2.82526 -0.527556 0.525754 
-2.80975 -0.514137 0.522506 -2.76445 -0.495034 0.512865 -2.83966 -0.343456 0.530261 
-2.92234 -0.343172 0.548121 -2.88808 -0.328379 0.540834 -2.65831 0.730543 0.49925 
-3.54319 2.35819 0.702733 -3.35959 -1.0535 0.625692 -3.18282 -0.755272 0.590461 
-2.8226 -0.537844 0.515715 -2.82255 -0.527508 0.515781 -2.93604 -0.345145 0.541232 
-2.90182 -0.330281 0.534087 -2.79047 -0.306932 0.510649 -2.71659 -0.288643 0.495118 
-2.72507 0.744374 0.504741 -3.62078 2.42049 0.707395 -3.42805 -1.1041 0.628062 
-3.42797 -1.09116 0.628145 -3.30857 -0.788732 0.605574 -3.24234 -0.747243 0.592101 
-2.81994 -0.548132 0.505677 -2.8353 -0.54101 0.508927 -2.80441 -0.524311 0.502623 
-2.81248 0.774925 0.514113 -3.42464 -1.10404 0.615576 -3.37613 -1.07412 0.605893 
-3.21831 -0.753985 0.57607 -3.11592 -0.716167 0.555443 -2.80183 -0.544804 0.492583 
-2.81717 -0.537748 0.49577 -2.80171 -0.524263 0.492714 -2.78499 -0.286429 0.491089 
-3.42138 -1.12987 0.602924 -3.4466 -1.12602 0.608005 -3.42124 -1.10398 0.603089 
-3.39697 -1.08255 0.59839 -3.23602 -0.759281 0.568577 -3.11286 -0.716113 0.544231 
-2.9996 -0.676456 0.521842 -2.96437 -0.656765 0.514934 -2.91266 -0.633437 0.50475 
-2.89496 -0.607869 0.501396 -2.87842 -0.593459 0.498191 -2.87836 -0.582848 0.498259 
-2.8783 -0.572237 0.498326 -2.86285 -0.558345 0.495337 -2.91072 -0.289181 0.506946 
-2.91066 -0.278423 0.507014 -2.92707 -0.26919 0.51037 -2.94458 -0.259912 0.513947 
-3.05211 -0.258042 0.535502 -4.17843 0.264352 0.765031 -3.99625 0.26523 0.728546 
-3.46741 -1.14781 0.600009 -3.41791 -1.11686 0.59052 -3.56984 -0.845691 0.622385 
-3.46548 -0.805779 0.60219 -3.21183 -0.729751 0.552951 -3.01527 -0.669819 0.514803 
-2.89215 -0.607819 0.49109 -2.90965 -0.601112 0.494577 -2.89203 -0.586455 0.491226 
-2.87551 -0.572187 0.488088 -2.86008 -0.558296 0.485163 -2.84208 -0.282464 0.483693 
-2.85847 -0.273586 0.486979 -2.94177 -0.270766 0.503356 -3.12699 -0.264532 0.539774 
-3.20918 -0.259384 0.55595 -3.10712 -0.239633 0.536058 -3.41458 -1.12974 0.577951 
-3.4145 -1.1168 0.578033 -3.12642 -0.709283 0.525644 -3.77827 2.52701 0.675217 
-3.38692 -1.09521 0.56115 -3.33972 -1.06578 0.552474 -3.75954 -0.260335 0.637582 
-3.91911 -0.240691 0.667799 -3.91902 -0.225528 0.667896 -3.98676 -0.213726 0.68075 
-4.02168 -0.199853 0.687434 -4.0216 -0.184244 0.687534 -3.71453 2.48134 0.649498 
-3.40762 -1.10374 0.553143 -3.3364 -1.06572 0.540285 -3.98261 -0.198197 0.665935 
-3.35611 -1.0865 0.532099 -3.31012 -1.05756 0.524011 -3.05966 -0.763425 0.480977 
-3.03992 -0.746646 0.477538 -3.84538 -0.192093 0.62703 -3.24027 -1.04622 0.500253 
-3.28389 -1.0494 0.507928 -2.98248 -0.75407 0.456901 -2.94748 -0.733322 0.450877 
-2.94742 -0.722342 0.450947 -3.23705 -1.04616 0.488438 -3.23698 -1.03391 0.488516 
-3.17263 -0.82001 0.478986 -3.27742 -1.06172 0.483854 -3.25555 -1.04157 0.480317 
-3.66644 2.45922 0.57521 -3.36666 -1.09485 0.486833 -3.34264 -1.07353 0.483038 
-3.92709 -0.119729 0.586147 -3.6335 2.43683 0.556526 -3.43613 -1.12095 0.485946 
-3.38713 -1.09044 0.478305 -3.29356 -1.04473 0.463623 -3.20544 -1.00173 0.449793 
-3.04525 -0.877701 0.424989 -3.04466 -0.774612 0.425646 -2.88225 -0.256405 0.403355 
-2.91584 -0.248498 0.408803 -4.02714 -0.106359 0.58818 -4.10011 0.0369613 0.600934 
-3.90777 2.58944 0.588654 -3.81045 2.53116 0.572612 -4.58945 3.30443 0.703255 
-4.49528 3.26496 0.687855 -4.54162 3.32065 0.695698 -4.49508 3.30073 0.688084 
-3.11978 -0.984872 0.425292 -3.08063 -0.959539 0.419349 -3.11932 -0.902338 0.425818 
-3.13954 -0.837661 0.429452 -3.11885 -0.819803 0.426344 -3.13639 -0.279269 0.433012 
-3.26318 -0.278146 0.452856 -4.17075 0.0221274 0.597021 -4.13273 0.0377757 0.591186 
-3.44365 1.35049 0.492912 -3.71374 2.46092 0.543227 -3.54316 2.34547 0.515702 
-4.40123 3.15748 0.655839 -4.35798 3.14018 0.648947 -3.09716 -0.977961 0.41099 
-3.05805 -0.952715 0.405212 -3.07718 -0.889764 0.408583 -3.13642 -0.837605 0.417989 
-3.11575 -0.819748 0.414968 -2.99802 -0.289708 0.40086 -3.01636 -0.280143 0.403726 
-3.05421 -0.272157 0.409551 -4.55068 0.0282497 0.639794 -4.50404 0.0454048 0.632809 
-4.45848 0.0621789 0.625987 -4.3285 0.0761184 0.606279 -4.12818 0.0865822 0.575825 
-4.05342 0.291114 0.565911 -3.36674 1.31686 0.468681 -3.466 1.37582 0.484235 
-3.46592 1.3892 0.48432 -3.74019 2.46928 0.533936 -3.65172 2.41684 0.520073 
-3.53955 2.34553 0.502461 -3.11358 -0.984762 0.40254 -3.05501 -0.952661 0.394082 
-3.07445 -0.947811 0.397001 -3.03647 -0.923358 0.391542 -3.07425 -0.91295 0.397223 
-3.07419 -0.90133 0.397297 -3.1333 -0.83755 0.406526 -4.69167 0.0680973 0.644247 
-4.49913 0.081263 0.615779 -4.28174 0.0919142 0.583605 -4.23943 0.308363 0.57889 
-3.29309 1.30998 0.445724 -3.33939 1.34453 0.452842 -3.38785 1.38052 0.460289 
-3.51386 1.46792 0.479614 -3.56762 1.5218 0.487978 -3.73643 2.45474 0.519752 
-3.091 -0.977852 0.388402 -3.07146 -0.959377 0.385715 -3.09087 -0.954441 0.388552 
-3.09067 -0.919325 0.388776 -3.09061 -0.90762 0.38885 -3.15073 -0.84356 0.397985 
-3.2134 -0.849832 0.406984 -4.58837 0.0840683 0.612096 -4.54076 0.100783 0.605346 
-4.44888 0.115409 0.592193 -4.23607 0.124135 0.561549 -4.00923 0.130341 0.528863 
-3.90549 0.140824 0.51397 -4.04522 0.25942 0.534985 -4.08184 0.278499 0.540405 
-3.33602 1.34459 0.440455 -3.10705 -0.925699 0.380164 -3.10698 -0.913908 0.380239 
-3.18864 -0.855635 0.392107 -3.21018 -0.849775 0.395169 -3.12416 -0.326569 0.386858 
-3.8356 0.152557 0.49005 -3.7115 0.16016 0.472703 -3.6823 0.172764 0.468699 
-3.7728 0.193319 0.481536 -3.90104 0.217423 0.499691 -3.96996 0.238068 0.509503 
-3.30897 1.33344 0.42467 -3.45514 1.42952 0.445855 -3.42925 1.43032 0.442229 
-3.10395 -0.925644 0.368788 -3.1449 -0.927243 0.374352 -3.20717 -0.886454 0.38312 
-3.22869 -0.880688 0.386091 -3.16201 -0.330904 0.380942 -3.76917 0.149162 0.467031 
-3.73785 0.162033 0.462859 -3.80024 0.180653 0.471486 -3.93156 0.204556 0.489535 
[...]
POINT_DATA 5392
SCALARS z_coord float
LOOKUP_TABLE default
0.814661 0.743748 0.802053 0.759981 0.772529 0.715478 0.720825 0.740418 0.783181 
0.735801 0.698658 0.703918 0.552829 0.543593 0.531347 0.534413 0.550061 0.706978 
0.776584 0.770589 0.712363 0.682013 0.682088 0.546969 0.531705 0.537679 0.537738 
0.543983 0.563947 0.596289 0.608192 0.612026 0.776663 0.763976 1.09457 0.807436 
0.694943 0.695022 0.705894 0.670701 0.670777 0.544047 0.609919 0.613954 0.610056 
0.610124 0.683955 0.678959 0.776579 0.763841 1.07662 1.01791 1.00695 1.00706 
1.00717 0.945401 0.955506 1.00751 0.677864 0.667855 0.699232 0.664162 0.551152 
0.59155 0.595517 0.584146 0.687624 0.78323 0.769929 0.770016 0.744631 1.04622 
1.05855 0.96909 0.990182 0.948855 0.911239 0.767817 0.67113 0.681626 0.652612 
0.548372 0.538235 0.538298 0.58138 0.574041 0.570276 0.570342 0.725312 0.776462 
0.769845 0.763226 0.725899 1.01674 1.01686 0.994284 0.983441 0.952245 0.754801 
0.644428 0.679931 0.659303 0.645813 0.636389 0.545221 0.535268 0.556727 0.560306 
0.76962 0.776552 0.76296 0.454431 0.447616 0.447668 0.747956 0.642342 0.652216 
0.628292 0.634176 0.624926 0.53544 0.522473 0.550202 0.54682 0.546886 0.473046 
0.473102 0.46067 0.73483 0.639981 0.64006 0.645186 0.608811 0.608886 0.528972 
0.525659 0.512935 0.540298 0.547619 0.540431 0.480002 0.709797 0.637882 0.597435 
0.60649 0.522375 0.525754 0.522506 0.512865 0.530261 0.548121 0.540834 0.49925 
0.702733 0.625692 0.590461 0.515715 0.515781 0.541232 0.534087 0.510649 0.495118 
0.504741 0.707395 0.628062 0.628145 0.605574 0.592101 0.505677 0.508927 0.502623 
0.514113 0.615576 0.605893 0.57607 0.555443 0.492583 0.49577 0.492714 0.491089 
0.602924 0.608005 0.603089 0.59839 0.568577 0.544231 0.521842 0.514934 0.50475 
0.501396 0.498191 0.498259 0.498326 0.495337 0.506946 0.507014 0.51037 0.513947 
0.535502 0.765031 0.728546 0.600009 0.59052 0.622385 0.60219 0.552951 0.514803 
0.49109 0.494577 0.491226 0.488088 0.485163 0.483693 0.486979 0.503356 0.539774 
0.55595 0.536058 0.577951 0.578033 0.525644 0.675217 0.56115 0.552474 0.637582 
0.667799 0.667896 0.68075 0.687434 0.687534 0.649498 0.553143 0.540285 0.665935 
0.532099 0.524011 0.480977 0.477538 0.62703 0.500253 0.507928 0.456901 0.450877 
0.450947 0.488438 0.488516 0.478986 0.483854 0.480317 0.57521 0.486833 0.483038 
0.586147 0.556526 0.485946 0.478305 0.463623 0.449793 0.424989 0.425646 0.403355 
0.408803 0.58818 0.600934 0.588654 0.572612 0.703255 0.687855 0.695698 0.688084 
0.425292 0.419349 0.425818 0.429452 0.426344 0.433012 0.452856 0.597021 0.591186 
0.492912 0.543227 0.515702 0.655839 0.648947 0.41099 0.405212 0.408583 0.417989 
0.414968 0.40086 0.403726 0.409551 0.639794 0.632809 0.625987 0.606279 0.575825 
0.565911 0.468681 0.484235 0.48432 0.533936 0.520073 0.502461 0.40254 0.394082 
0.397001 0.391542 0.397223 0.397297 0.406526 0.644247 0.615779 0.583605 0.57889 
0.445724 0.452842 0.460289 0.479614 0.487978 0.519752 0.388402 0.385715 0.388552 
0.388776 0.38885 0.397985 0.406984 0.612096 0.605346 0.592193 0.561549 0.528863 
0.51397 0.534985 0.540405 0.440455 0.380164 0.380239 0.392107 0.395169 0.386858 
0.49005 0.472703 0.468699 0.481536 0.499691 0.509503 0.42467 0.445855 0.442229 
0.368788 0.374352 0.38312 0.386091 0.380942 0.467031 0.462859 0.471486 0.489535 
0.489634 0.499155 0.357412 0.357487 0.371305 0.379927 0.453278 0.348227 0.340869 
0.343451 0.343526 0.364909 0.370679 0.335228 0.350045 0.350121 0.340275 0.389692 
0.420463 0.416855 0.43614 0.440213 0.444286 0.448637 0.448733 0.46613 0.447063 
0.33684 0.336992 0.337067 0.35566 0.361238 0.328852 0.336013 0.343571 0.346143 
0.346339 0.406747 0.406838 0.410506 0.414175 0.414268 0.41436 0.418165 0.429798 
0.434006 0.434103 0.4342 0.430181 0.434393 0.424831 0.375663 0.369845 0.361475 
0.364372 0.325377 0.323133 0.323209 0.348872 0.354512 0.315424 0.315497 0.317723 
0.344685 0.339568 0.39749 0.397581 0.404726 0.418182 0.434403 0.359918 0.354436 
0.354516 0.354597 0.354678 0.347121 0.3472 0.339625 0.342167 0.342245 0.30957 
0.307457 0.321147 0.319221 0.302176 0.302248 0.332672 0.389387 0.392963 0.336924 
0.339625 0.337083 0.337162 0.334743 0.325458 0.325534 0.320854 0.316423 0.316497 
0.300381 0.298351 0.300532 0.2985 0.300908 0.293321 0.293394 0.304345 0.375424 
0.332339 0.335064 0.302157 0.301882 0.297467 0.293581 0.291519 0.291595 0.295948 
0.315147 0.30112 0.331408 0.328779 0.317626 0.310537 0.30599 0.284158 0.284235 
0.295112 0.287139 0.303498 0.353902 0.330184 0.314541 0.322526 0.314957 0.317481 
0.310128 0.298553 0.272522 0.282939 0.267531 0.288824 0.278193 0.260731 0.260808 
0.262762 0.270845 0.263692 0.268288 0.264389 0.294067 0.246636 0.208467 0.249172 
0.251039 0.258752 0.253861 0.252589 0.249061 0.240953 0.237535 0.251237 0.251318 
0.23915 0.240943 0.216385 0.216454 0.216522 0.223398 0.230839 0.236191 0.230231 
0.224257 0.222704 0.214319 0.214391 0.209942 0.174035 0.222231 0.231085 0.22343 
0.211103 0.214259 0.199411 0.203501 0.202177 0.167084 0.165406 0.206011 0.211731 
0.218493 0.214543 0.217984 0.214705 0.208443 0.201104 0.20118 0.20271 0.185178 
0.188134 0.155974 0.147021 0.145665 0.195343 0.198044 0.201121 0.1963 0.193507 
0.195021 0.193662 0.195177 0.193817 0.193894 0.172539 0.176443 0.138982 0.138371 
0.18558 0.180352 0.180968 0.179763 0.160188 0.160254 0.161345 0.160388 0.164967 
0.165036 0.135409 0.134842 0.132893 0.131048 0.130479 0.130531 0.129961 0.129389 
0.129442 0.12887 0.128922 0.129599 0.129651 0.129078 0.12913 0.179935 0.186073 
0.181751 0.176306 0.175082 0.176469 0.177918 0.176631 0.172252 0.168639 0.164021 
0.170525 0.168213 0.150082 0.150149 0.151171 0.153564 0.154656 0.126483 0.127118 
0.125302 0.123655 0.123062 0.123115 0.122586 0.122056 0.122109 0.121578 0.121047 
0.12058 0.121151 0.120683 0.120735 0.17238 0.174897 0.178738 0.174436 0.170381 
0.165287 0.165368 0.16545 0.165532 0.164345 0.158027 0.155977 0.160045 0.160123 
0.160201 0.166294 0.138197 0.138263 0.138329 0.147069 0.152014 0.159641 0.17118 
0.118772 0.118288 0.160055 0.16351 0.164755 0.164831 0.152491 0.153736 0.156198 
0.156282 0.150945 0.151025 0.151106 0.151187 0.151267 0.151348 0.151428 0.152628 
0.155056 0.152791 0.146304 0.143336 0.142768 0.138162 0.127462 0.148091 0.154705 
0.155939 0.158385 0.159843 0.163673 0.160008 0.110427 0.110482 0.109484 0.108485 
0.152048 0.154287 0.153281 0.159285 0.159362 0.221186 0.13803 0.137097 0.135196 
0.138755 0.138836 0.138916 0.138997 0.140099 0.14018 0.140261 0.141415 0.140424 
0.142652 0.140586 0.131557 0.127343 0.118252 0.137498 0.142612 0.14375 0.145999 
0.143011 0.143171 0.100662 0.100717 0.135005 0.134187 0.145584 0.146693 0.144703 
0.14788 0.12218 0.124006 0.125003 0.127049 0.12713 0.12116 0.116525 0.13148 
0.13156 0.133695 0.133777 0.133858 0.122459 0.120952 0.131385 0.131459 0.131533 
0.13071 0.135372 0.110366 0.109662 0.108114 0.108939 0.120376 0.122365 0.123491 
0.111371 0.107783 0.11929 0.122218 0.12139 0.123334 0.109523 0.108209 0.0978608 
0.0966255 0.0935177 0.0948103 0.108591 0.107832 0.0985723 0.0967313 0.0964252 0.0953722 
0.0954395 0.0873351 0.0874138 0.0835248 0.0928708 0.0943306 0.0944145 0.0815812 0.0811757 
0.0857984 0.0889206 0.0866435 0.086715 0.0862301 0.0860591 0.0828096 0.0823967 0.0754289 
0.0749995 0.0792399 0.0810656 0.0805492 0.071998 0.072068 0.0730482 0.0722378 0.0738406 
0.0734683 0.0639065 0.0637092 0.0634816 0.063539 0.0629678 0.0630245 0.0630812 0.063138 
0.0629076 0.0632513 0.0636242 0.0636813 0.0634214 0.0631896 0.0635348 0.0635915 0.0633588 
0.0634151 0.0628626 0.0626281 0.0618409 0.0689703 0.0617631 0.0614736 0.0623138 0.0623838 
0.0624348 0.0614189 0.0578648 0.0591691 0.0552394 0.0552961 0.0556224 0.0490142 0.0571499 
0.0565478 0.0564314 0.0510955 0.0508792 0.050662 0.0507315 0.0514269 0.0517894 0.0513402 
0.0511124 0.0467662 0.0472789 0.0485108 0.0472969 0.0475737 0.0474122 0.0395643 0.038969 
0.0452529 0.0453396 0.0460547 0.0470048 0.0470938 0.0465281 0.0462939 0.0402798 0.0409959 
0.0406348 0.0400688 0.0401374 0.040206 0.0400567 0.0393191 0.0399876 0.0405335 0.0403935 
0.0396552 0.0403339 0.0408059 0.0376801 0.0379116 0.038967 0.0388563 0.0382518 0.0381541 
0.0421935 0.0420449 0.0290399 0.0294503 0.0296949 0.029948 0.0300326 0.0302864 0.0301982 
0.0301161 0.0323248 0.0300196 0.0300864 0.0307181 0.0304939 0.0308553 0.0289427 0.029962 
0.0297921 0.0295123 0.0310923 0.0157408 0.0158195 0.0168348 0.0169187 0.0169418 0.0170864 
0.0172352 0.0174889 0.0175735 0.0176581 0.0200143 0.0212319 0.0210878 0.0220157 0.0222257 
0.0223577 0.0251652 0.0254518 0.0255209 0.0257036 0.0262374 0.0266129 0.0265657 0.0254724 
0.0248852 0.0038769 0.00391326 0.00422827 0.00418369 0.0042669 0.00481359 0.00489745 0.00505189 
0.00529895 0.0100568 0.0101393 0.0101998 0.0126287 0.0126497 0.0128179 0.012874 0.0129689 
0.0130256 0.0131461 0.015477 -0.00793787 -0.00799288 -0.0076501 -0.00811829 -0.00832482 -0.00757589 
-0.00068911 -0.00055035 -0.000412604 0.00407801 0.00433166 0.00438712 0.00438661 0.00441639 0.00449879 
0.00439099 -0.0199776 -0.019899 -0.0198795 -0.0209998 -0.0209166 -0.0196858 -0.0205531 -0.0107262 
-0.010386 -0.0089614 -0.00415235 -0.00417071 -0.00685694 -0.00751867 -0.00783368 -0.00795587 -0.0313331 
-0.0314148 -0.0297789 -0.0199732 -0.019534 -0.0126257 -0.0184705 -0.0192421 -0.0200646 -0.020933 
-0.0449143 -0.0423737 -0.0321959 -0.0302119 -0.0312797 -0.0321582 -0.0343523 -0.05668 -0.0542798 
-0.0322538 -0.0296114 -0.029345 -0.0430944 -0.0442517 -0.0694853 -0.062152 -0.0615571 -0.0402232 
-0.0380486 -0.0549092 -0.0553276 -0.0817709 -0.0728426 -0.0727685 -0.0493765 -0.0496342 -0.0486046 
-0.0476395 -0.0444832 -0.045881 -0.0679007 -0.0684388 -0.0832952 -0.0559441 -0.0541662 -0.0531085 
-0.0520539 -0.0523494 -0.052958 -0.053347 -0.0792185 -0.0805323 -0.107289 -0.0944244 -0.0646683 
-0.0654231 -0.0626156 -0.0610657 -0.0597382 -0.0607897 -0.0599872 -0.0616605 -0.0623518 -0.0903534 
-0.091046 -0.120722 -0.105627 -0.105554 -0.0845116 -0.0747503 -0.0728486 -0.06978 -0.0685133 
-0.0672932 -0.0672416 -0.0664275 -0.0663765 -0.0678486 -0.0674384 -0.0662234 -0.0661724 -0.0664788 
-0.0668294 -0.0678855 -0.0682342 -0.068983 -0.0685294 -0.0680764 -0.0669961 -0.0654024 -0.0661433 
-0.0698648 -0.103031 -0.102952 -0.116683 -0.0742862 -0.0746782 -0.0750696 -0.0754113 -0.0753592 
-0.0744721 -0.0744205 -0.074369 -0.0738762 -0.07535 -0.0748599 -0.0748076 -0.0790433 -0.114937 
-0.114858 -0.143198 -0.127885 -0.127812 -0.081581 -0.0820117 -0.0824015 -0.0864372 -0.127889 
-0.126764 -0.126292 -0.155484 -0.140111 -0.142229 -0.0941747 -0.0925084 -0.138749 -0.138671 
-0.170668 -0.153681 -0.153605 -0.10301 -0.149427 -0.149349 -0.181605 -0.166388 -0.164981 
-0.120671 -0.120613 -0.111378 -0.111991 -0.113204 -0.16264 -0.195642 -0.179269 -0.176357 
-0.134397 -0.120993 -0.121651 -0.123806 -0.180486 -0.177441 -0.208128 -0.190818 -0.186308 
-0.147065 -0.125063 -0.130857 -0.132396 -0.199464 -0.192691 -0.222551 -0.194661 -0.191656 
-0.137195 -0.135592 -0.134805 -0.1309 -0.128733 -0.126649 -0.127248 -0.128579 -0.131371 
-0.13205 -0.129156 -0.129835 -0.132622 -0.133299 -0.134786 -0.134732 -0.13395 -0.131629 
-0.132305 -0.132252 -0.131471 -0.131419 -0.130639 -0.130587 -0.129808 -0.130482 -0.13043 
-0.130377 -0.130325 -0.128902 -0.129495 -0.133148 -0.217905 -0.215905 -0.20673 -0.235226 
-0.239136 -0.199711 -0.153301 -0.149627 -0.149572 -0.149516 -0.1486 -0.146911 -0.144363 
-0.141764 -0.147078 -0.147879 -0.147768 -0.146857 -0.146802 -0.145978 -0.145068 -0.144159 
-0.143337 -0.144051 -0.143997 -0.142322 -0.142268 -0.143067 -0.143013 -0.142959 -0.142905 
-0.145319 -0.230922 -0.230836 -0.22291 -0.252018 -0.251933 -0.207464 -0.211623 -0.260038 
-0.248296 -0.264815 -0.264731 -0.264646 -0.264561 -0.218131 -0.372669 -0.372549 -0.276402 
-0.261537 -0.282532 -0.282446 -0.279902 -0.277359 -0.232166 -0.261022 -0.242613 -0.240643 
-0.33433 -0.310869 -0.287716 -0.274778 -0.252078 -0.394882 -0.399422 -0.408932 -0.285388 
-0.278103 -0.310274 -0.144078 -0.387289 -0.297852 -0.263289 -0.407588 -0.407474 -0.416961 
-0.30361 -0.300909 -0.293091 -0.334238 -0.347662 -0.334045 -0.407762 -0.398148 -0.393446 
-0.40789 -0.310443 -0.394706 -0.386294 -0.382268 -0.390123 -0.374224 -0.424847 -0.424733 
-0.316737 -0.320557 -0.415603 -0.406032 -0.328464 -0.289967 -0.405955 -0.401655 -0.32995 
-0.329863 -0.321275 -0.438154 -0.432942 -0.303714 -0.417431 -0.408866 -0.331252 -0.368048 
-0.327248 -0.322093 -0.327092 -0.334951 -0.312719 -0.415813 -0.419842 -0.353234 -0.350094 
-0.344216 -0.346965 -0.346885 -0.321683 -0.430873 -0.430774 -0.444943 -0.372713 -0.369329 
-0.350722 -0.364987 -0.367969 -0.335471 -0.450354 -0.445833 -0.375993 -0.366495 -0.373418 
-0.341695 -0.456327 -0.465359 -0.456129 -0.460595 -0.372906 -0.352906 -0.480767 -0.485674 
-0.490579 -0.480465 -0.480365 -0.375973 -0.366858 -0.481392 -0.495872 -0.388066 -0.489105 
-0.491563 -0.496159 -0.511078 -0.39683 -0.494209 -0.484894 -0.516178 -0.521232 -0.531758 
-0.412333 -0.418945 -0.481414 -0.490146 -0.490055 -0.489965 -0.41958 -0.531091 -0.494887 
-0.503862 -0.503771 -0.503681 -0.512819 -0.535453 -0.503795 -0.512837 -0.450292 -0.446711 
-0.443132 -0.450054 -0.480257 -0.515312 -0.534623 -0.555326 -0.52652 -0.451354 -0.45846 
-0.458381 -0.489095 -0.489011 -0.501666 -0.514856 -0.459578 -0.463 -0.466605 -0.489374 
-0.523699 -0.4674 -0.652823 -0.63946 -0.659143 -0.673074 -0.68739 -0.578957 -0.496617 
-0.474012 -0.661553 -0.654666 -0.64818 -0.654465 -0.661147 -0.661045 -0.654163 -0.634042 
-0.582058 -0.508524 -0.489165 -0.516363 -0.504491 -0.48937 -0.485637 -0.482109 -0.524019 
-0.516041 -0.504323 -0.500508 -0.49316 -0.515468 -0.52325 -0.511497 -0.538835 -0.538758 
-0.526538 -0.501119 -0.567661 -0.554516 -0.546024 -0.554362 -0.494985 -0.491411 -0.450541 
-0.512011 -0.515658 -0.519522 -0.513628 -0.502662 -0.499105 -0.492065 -0.524597 -0.517184 
-0.502656 -0.485685 -0.577558 -0.573102 -0.560238 -0.555848 -0.547599 -0.528002 -0.589118 
-0.597114 -0.587887 -0.58781 -0.760995 -0.529644 -0.57679 -0.576714 -0.576637 -0.572156 
-0.57208 -0.572004 -0.563353 -0.563278 -0.563204 -0.558959 -0.686882 -0.532651 -0.547328 
-0.555073 -0.559027 -0.554929 -0.558882 -0.558737 -0.558665 -0.558592 -0.55852 -0.554353 
-0.554281 -0.550426 -0.546334 -0.546263 -0.546192 -0.54234 -0.538488 -0.538418 -0.538348 
-0.530718 -0.690738 -0.539238 -0.539167 -0.573998 -0.591829 -0.591673 -0.586945 -0.58679 
-0.610415 -0.57773 -0.559282 -0.559211 -0.563038 -0.562967 -0.570931 -0.566964 -0.558859 
-0.573186 -0.581607 -0.581534 -0.589896 -0.498468 -0.489217 -0.483111 -0.489092 -0.535676 
-0.458039 -0.471689 -0.561286 -0.561214 -0.556954 -0.544881 -0.544811 -0.544741 -0.540847 
-0.540778 -0.536885 -0.533232 -0.529342 -0.533095 -0.536609 -0.532958 -0.532889 -0.532821 
-0.487949 -0.487886 -0.487823 -0.494191 -0.500319 -0.506922 -0.517094 -0.523932 -0.557183 
-0.561152 -0.565358 -0.565285 -0.565212 -0.560862 -0.556751 -0.560717 -0.55905 -0.554952 
-0.55488 -0.554808 -0.531453 -0.557487 -0.486896 -0.472371 -0.466919 -0.56022 -0.564054 
-0.563983 -0.56377 -0.567844 -0.567773 -0.567701 -0.56763 -0.571458 -0.575529 -0.567415 
-0.563202 -0.559233 -0.559163 -0.559092 -0.555126 -0.555056 -0.554986 -0.554916 -0.554846 
-0.546988 -0.531311 -0.520558 -0.576336 -0.600753 -0.574364 -0.578394 -0.586934 -0.527444 
-0.548948 -0.481411 -0.475858 -0.549546 -0.545761 -0.545693 -0.542157 -0.538374 -0.541686 
-0.537906 -0.537839 -0.548915 -0.544914 -0.552465 -0.56419 -0.53384 -0.544245 -0.544179 
-0.478948 -0.476093 -0.559512 -0.55566 -0.552062 -0.555525 -0.559239 -0.563051 -0.559226 
-0.555153 -0.570853 -0.576791 -0.584834 -0.584766 -0.584697 -0.526665 -0.536479 -0.543433 
-0.487782 -0.487724 -0.484818 -0.56237 -0.562303 -0.565831 -0.562169 -0.562101 -0.5773 
-0.573154 -0.553976 -0.529199 -0.579309 -0.586962 -0.586894 -0.5831 -0.542576 -0.545951 
-0.545887 -0.505516 -0.585087 -0.573327 -0.569476 -0.559315 -0.559251 -0.511615 -0.514505 
-0.514446 -0.537717 -0.575681 -0.568977 -0.568913 -0.520496 -0.523436 -0.529647 -0.572958 
-0.565337 -0.568785 -0.599307 -0.595123 -0.585017 -0.582126 -0.582062 -0.545784 -0.532426 
-0.586913 -0.590697 -0.578889 -0.557387 -0.553752 -0.571551 -0.616604 -0.612428 -0.607979 
-0.584216 -0.584153 -0.548436 -0.548376 -0.534875 -0.570164 -0.559765 -0.559703 -0.61849 
-0.618422 -0.618354 -0.614111 -0.579042 -0.575535 -0.571741 -0.57168 -0.568175 -0.568114 
-0.568053 -0.564549 -0.564489 -0.560986 -0.560926 -0.560866 -0.560805 -0.564187 -0.560685 
-0.554031 -0.547665 -0.55076 -0.547137 -0.573782 -0.566606 -0.573658 -0.599356 -0.616078 
-0.616011 -0.611702 -0.611636 -0.61157 -0.615744 -0.623875 -0.628047 -0.619783 -0.538451 
-0.516912 -0.502764 -0.481291 -0.587491 -0.549731 -0.546471 -0.543502 -0.53704 -0.54624 
-0.552584 -0.559218 -0.573056 -0.575918 -0.586657 -0.613183 -0.609604 -0.609539 -0.613496 
-0.613431 -0.625716 -0.629957 -0.547332 -0.543835 -0.537475 -0.525388 -0.497267 -0.589362 
-0.545733 -0.548928 -0.558217 -0.568208 -0.574946 -0.575135 -0.571841 -0.575015 -0.574955 
-0.574895 -0.574835 -0.574774 -0.570587 -0.573754 -0.623078 -0.631179 -0.631113 -0.5462 
-0.540032 -0.587983 -0.584298 -0.570903 -0.574129 -0.57407 -0.574011 -0.548718 -0.542455 
-0.589906 -0.586474 -0.579783 -0.579725 -0.579607 -0.579548 -0.557347 -0.547987 -0.588254 
-0.584773 -0.585029 -0.58497 -0.584912 -0.587138 -0.538193 -0.529608 -0.587098 -0.58704 
-0.593854 -0.549498 -0.529035 -0.592653 -0.595707 -0.58093 -0.583581 -0.573677 -0.570463 
-0.570408 -0.567195 -0.564299 -0.564244 -0.567029 -0.619475 -0.554619 -0.536992 -0.57532 
-0.572384 -0.565926 -0.572274 -0.575099 -0.568964 -0.578189 -0.574934 -0.574879 -0.571944 
-0.574769 -0.577912 -0.577856 -0.580999 -0.58446 -0.587602 -0.590742 -0.594202 -0.600857 
-0.6008 -0.604257 -0.618282 -0.61471 -0.614651 -0.60649 -0.606431 -0.602866 -0.602808 
-0.606256 -0.602692 -0.571271 -0.571217 -0.571163 -0.574031 -0.577223 -0.577168 -0.57695 
-0.580139 -0.583004 -0.593004 -0.596191 -0.596135 -0.596078 -0.599264 -0.602774 -0.602717 
-0.606226 -0.609121 -0.609064 -0.612511 -0.608199 -0.608141 -0.611583 -0.611525 -0.615024 
-0.611232 -0.604273 -0.604217 -0.621576 -0.614618 -0.610092 -0.613356 -0.613299 -0.61652 
-0.620068 -0.616405 -0.612017 -0.615288 -0.622552 -0.622495 -0.615061 -0.611678 -0.618379 
-0.625245 -0.621864 -0.521713 -0.584026 -0.578854 -0.576071 -0.572947 -0.518987 -0.514165 
-0.566318 -0.554852 -0.55757 -0.521274 -0.513969 -0.509085 -0.578611 -0.565111 -0.557001 
-0.52334 -0.51594 -0.511343 -0.508847 -0.556173 -0.556125 -0.513439 -0.515522 -0.515477 
-0.563454 -0.560529 -0.524846 -0.524801 -0.524756 -0.567726 -0.562217 -0.534053 -0.53619 
-0.582733 -0.56686 -0.561652 -0.545669 -0.545624 -0.578932 -0.574004 -0.568732 -0.566073 
-0.560803 -0.557639 -0.562453 -0.55712 -0.557075 -0.559673 -0.561156 -0.558778 -0.566697 
-0.566651 -0.566606 -0.563885 -0.557981 -0.557365 -0.557322 -0.557279 -0.557236 -0.556585 
-0.554128 -0.554085 -0.558042 -0.555965 -0.555923 -0.559844 -0.557333 -0.559761 -0.559091 
-0.55905 -0.559008 0.214163 0.204718 0.196361 0.0953477 0.0849594 0.0745712 0.0630894 
-0.398728 -0.374926 -0.599163 0.0504491 0.039932 -0.580985 -0.411709 -0.575661 -0.577131 
-0.00393016 -0.0128737 -0.446748 -0.455417 -0.45548 -0.577892 -0.0371133 -0.458609 -0.458737 
-0.45865 -0.466193 -0.473746 -0.569802 -0.575018 -0.583942 -0.0409842 -0.0511571 -0.06071 
-0.0701572 -0.0809093 -0.45379 -0.457759 -0.461531 -0.469052 -0.472752 -0.568339 -0.581041 
-0.586187 -0.0996065 -0.109237 -0.496388 -0.499835 -0.494633 -0.50197 -0.556217 -0.568425 
-0.137673 -0.147288 -0.501649 -0.504806 -0.49976 -0.553108 -0.551485 -0.543404 -0.140403 
-0.153911 -0.164929 -0.175946 -0.500349 -0.503575 -0.502511 -0.501574 -0.555312 -0.557124 
-0.205502 -0.213449 -0.489812 -0.489136 -0.564673 -0.545643 -0.204739 -0.212538 -0.218282 
-0.477793 -0.481041 -0.484004 -0.486906 -0.563455 -0.258412 -0.275427 -0.275028 -0.483014 
-0.492976 -0.565951 -0.312559 -0.48552 -0.491883 -0.564586 0.0336032 -0.318256 -0.481153 
-0.490981 -0.563193 -0.55757 -0.356095 -0.499811 -0.495431 -0.561765 -0.56372 -0.569132 