# vtk DataFile Version 4.2
vtk output
ASCII
DATASET POLYDATA
POINTS 5012 float
-3.62892 2.2681 0.733131 -3.57373 2.26947 0.721006 -3.60113 2.30327 0.727288 
-3.60105 2.31699 0.727376 -3.59783 2.24844 0.713697 -3.6252 2.282 0.719864 
-3.59768 2.27589 0.713873 -3.5976 2.28961 0.71396 -3.59752 2.30333 0.714048 
-3.59744 2.31706 0.714135 -3.62172 2.25438 0.706333 -3.62164 2.26823 0.706421 
-3.67552 2.21069 0.704605 -3.56369 2.14722 0.680845 -3.56361 2.16082 0.680932 
-3.56353 2.17443 0.681019 -3.61823 2.22676 0.692801 -3.67182 2.21076 0.691012 
-3.56011 2.14728 0.667719 -3.56003 2.16089 0.667806 -3.55995 2.17449 0.667893 
-3.61459 2.22683 0.679446 -3.64297 2.26094 0.685498 -3.8193 2.25615 0.708044 
-3.78751 2.24939 0.701626 -3.69771 2.21702 0.683394 -3.61127 2.17153 0.665738 
-3.53029 2.12909 0.6492 -4.30848 -2.55771 0.7546 -3.81534 2.27096 0.693914 
-3.75302 2.24317 0.681468 -3.6361 2.17728 0.658016 -3.58033 2.1527 0.646881 
-3.50054 2.1109 0.630901 -4.30407 -2.55763 0.738434 -4.27684 2.26786 0.76921 
-4.27674 2.28461 0.769317 -4.36067 2.35227 0.785971 -4.44678 2.42199 0.803059 
-3.81155 2.25629 0.679597 -4.34138 -2.58463 0.729928 -4.34128 -2.5677 0.730036 
-3.35981 2.51227 0.559376 -3.35973 2.52511 0.559458 -4.16811 -2.44787 0.65369 
-4.09364 -2.38413 0.641014 -3.35643 2.51233 0.546991 -3.38022 2.54597 0.551438 
-3.38007 2.57185 0.551603 -4.01742 -2.35357 0.61345 -4.08945 -2.38406 0.625652 
-3.23971 2.33958 0.51378 -3.21797 2.33358 0.509986 -3.19623 2.32739 0.506189 
-3.19617 2.33954 0.506267 -3.21777 2.37032 0.51022 -3.94346 -2.3085 0.586949 
-4.04815 -2.36024 0.604211 -3.15259 2.17272 0.486516 -3.15252 2.18469 0.486592 
-3.13189 2.17987 0.483079 -3.15239 2.20863 0.486745 -3.15232 2.2206 0.486821 
-3.15225 2.23257 0.486897 -3.17275 2.2617 0.490565 -3.17268 2.27376 0.490642 
-3.03158 2.07747 0.454881 -3.03151 2.08892 0.454954 -3.01199 2.08447 0.45171 
-3.03138 2.11183 0.455101 -3.03132 2.12328 0.455174 -3.03126 2.13474 0.455247 
-3.04957 2.16154 0.458455 -3.0495 2.17307 0.458529 -3.0287 2.05461 0.443684 
-3.00919 2.05041 0.440523 -3.16371 2.17744 0.455117 -3.41042 2.20738 0.48178 
-3.4102 2.24685 0.482032 -3.43492 2.27903 0.486032 -3.43484 2.29229 0.486116 
-3.95789 -2.29973 0.518299 -3.59179 2.21995 0.496597 -3.56371 2.21389 0.492388 
-3.50979 2.18898 0.484209 -3.48387 2.18388 0.480326 -3.48379 2.19737 0.480412 
-3.48372 2.21086 0.480498 -3.48364 2.22435 0.480584 -3.48356 2.23784 0.48067 
-4.0969 -2.3912 0.523371 -4.62297 2.56617 0.63493 -3.67425 2.26692 0.495889 
-3.64513 2.26059 0.491641 -3.64505 2.27481 0.491732 -3.61592 2.2681 0.487481 
-3.58788 2.26191 0.48339 -3.55984 2.25548 0.479298 -3.58772 2.28984 0.483568 
-3.67369 2.36733 0.496529 -3.61553 2.33854 0.48793 -4.28765 -2.53288 0.534178 
-4.24641 -2.48959 0.528706 -4.6181 2.56626 0.617069 -3.82331 2.32997 0.50393 
-3.79206 2.3232 0.4995 -3.76082 2.31615 0.495069 -4.41081 -2.61519 0.534622 
-4.2831 -2.51587 0.517946 -4.12085 -2.3983 0.481606 -4.19853 -2.4313 0.491628 
-4.07557 -2.35865 0.445992 -3.96379 -2.3058 0.417971 -4.07135 -2.35858 0.430475 
-3.95969 -2.30573 0.402911 -4.06712 -2.3585 0.414959 -4.02646 -2.3511 0.395433 
-4.06289 -2.35843 0.399442 -4.02228 -2.35103 0.380072 -3.95139 -2.28997 0.372891 
-3.87863 -2.23083 0.35116 -3.98139 -2.28026 0.361417 -3.94309 -2.27422 0.342871 
-3.90876 -2.23703 0.33973 -4.00954 -2.31896 0.33419 -3.9047 -2.23696 0.324817 
-3.54665 1.75996 0.318498 -3.54657 1.77392 0.318587 -3.51889 1.77179 0.315948 
-3.46573 1.75445 0.310788 -3.46566 1.76806 0.310875 -3.4401 1.76647 0.308441 
-3.41455 1.76465 0.306006 -3.46543 1.80887 0.311135 -3.34117 1.74673 0.298923 
-3.31668 1.74479 0.296588 -3.36437 1.78729 0.301404 -3.36429 1.80044 0.301487 
-3.34087 1.79894 0.299256 -3.3408 1.81199 0.29934 -4.00535 -2.31889 0.318829 
-3.90063 -2.23689 0.309903 -3.54297 1.76002 0.305024 -3.51533 1.75802 0.302504 
-3.38582 1.70961 0.290433 -3.36135 1.70842 0.288208 -3.31357 1.69308 0.283771 
-3.24458 1.66456 0.277323 -3.17878 1.63734 0.271171 -3.17871 1.64968 0.27125 
-3.17864 1.66202 0.271329 -3.19977 1.6875 0.273419 -3.1785 1.6867 0.271486 
-3.19963 1.71237 0.273578 -3.19956 1.72481 0.273657 -3.22175 1.75143 0.275852 
-3.24394 1.77826 0.278048 -3.24387 1.79089 0.278128 -3.22154 1.78904 0.276092 
-3.22147 1.80157 0.276172 -3.24366 1.8288 0.27837 -3.26584 1.85622 0.28057 
-3.28908 1.88455 0.282871 -3.28901 1.89739 0.282953 -3.28894 1.91022 0.283035 
-3.31218 1.93897 0.28534 -3.31211 1.95191 0.285422 -3.31204 1.96486 0.285505 
-3.31196 1.9778 0.285587 -3.33582 2.08611 0.288496 -3.33574 2.09916 0.288579 
-3.31131 2.09427 0.28633 -3.28793 2.08995 0.284181 -3.28785 2.10279 0.284263 
-3.31109 2.1331 0.286578 -3.31101 2.14604 0.28666 -3.26433 2.12362 0.282275 
-4.00116 -2.31881 0.303468 -3.89657 -2.23681 0.29499 -3.65287 1.78189 0.301516 
-3.53946 1.73216 0.291372 -3.43347 1.68564 0.281891 -4.06941 -2.36491 0.293746 
-3.96067 -2.27989 0.285387 -4.50627 1.8421 0.358454 -4.5536 1.91953 0.362875 
-4.55349 1.93804 0.362993 -4.36922 1.8678 0.34736 -4.50565 1.9519 0.359154 
-4.55318 1.99358 0.363347 -4.50545 1.9885 0.359388 -4.50534 2.0068 0.359504 
-4.32533 1.93436 0.344206 -4.12204 1.84846 0.326902 -3.80447 1.70208 0.299786 
-3.74089 1.68436 0.294437 -3.74081 1.69924 0.294532 -3.77141 1.73029 0.29726 
-3.80413 1.76273 0.300173 -3.85448 -2.2304 0.262556 -3.88844 -2.23667 0.265163 
-3.86637 1.674 0.290104 -3.93393 1.72332 0.295711 -4.07866 1.81221 0.307609 
-3.96969 1.77315 0.298841 -3.80048 1.70215 0.285156 -3.73698 1.68443 0.280081 
-3.7369 1.69931 0.280176 -3.9886 -2.31859 0.257383 -4.02041 -2.32551 0.244478 
-3.98423 -2.28667 0.242225 -4.44573 1.76668 0.301767 -4.40027 1.76426 0.298589 
-4.22928 1.70411 0.286288 -3.98005 -2.2866 0.226863 -4.30821 1.70726 0.27524 
-4.26597 1.70567 0.27247 -4.26587 1.72298 0.272581 -4.22468 1.72131 0.269879 
-3.97586 -2.28652 0.211502 -4.34686 1.70902 0.261013 -4.26151 1.68845 0.255664 
-4.22037 1.68715 0.253143 -3.97167 -2.28645 0.19614 -4.29911 1.68993 0.241371 
-4.21597 1.67011 0.236516 -4.13493 1.6505 0.231783 -3.96749 -2.28637 0.180779 
-4.4731 1.7512 0.23428 -4.29451 1.69001 0.224492 -3.92743 -2.26354 0.163839 
-4.37705 1.71102 0.211955 -3.82211 -2.19922 0.144613 -4.56673 0.388705 0.194476 
-4.47112 0.397211 0.190332 -4.51072 1.75369 0.201059 -4.37235 1.7111 0.194697 
-3.75387 -2.15832 0.127571 -4.51359 0.383841 0.17446 -4.37511 0.387521 0.168997 
-4.45877 1.73316 0.181195 -4.3237 1.69174 0.175569 -3.78252 -2.179 0.114097 
-4.50861 0.40244 0.156717 -4.40798 1.71308 0.161783 -4.2762 1.67284 0.156865 
-3.77853 -2.17893 0.0994665 -4.35834 1.69346 0.142808 -4.3144 1.69191 0.141437 
-4.44433 1.73341 0.128228 -4.44423 1.75171 0.128345 -4.53428 1.7752 0.112957 
-4.53739 0.351768 0.0858061 -4.53728 0.370499 0.0859255 -4.4883 0.550887 0.0862152 
-4.5314 0.539161 0.0689289 -3.71825 -2.14268 -0.00272998 -4.42321 0.361467 0.0135396 
-4.423 0.398066 0.0137731 -4.51451 0.914034 0.0171029 -4.51441 0.932765 0.0172224 
-4.51276 0.352205 -0.00455263 -4.28477 0.34825 -0.00366709 -4.41829 0.379852 -0.00399962 
-4.41819 0.398151 -0.00388291 -4.51223 0.445858 -0.00395527 -4.46208 0.884547 -0.000967175 
-4.50959 0.914122 -0.000968844 -4.50948 0.932853 -0.000849396 -4.46129 0.16264 -0.0234333 
-4.41461 0.178643 -0.0229391 -4.2381 0.274127 -0.0208496 -4.238 0.291622 -0.020738 
-4.36826 0.320918 -0.0216486 -4.41368 0.343338 -0.0218888 -4.32357 0.352665 -0.0210715 
-4.5073 0.445946 -0.022027 -4.45732 0.86612 -0.0189467 -4.41069 0.874023 -0.0185042 
-4.4524 1.73621 -0.0133975 -4.31978 0.191762 -0.0393565 -4.15224 0.199077 -0.0371583 
-4.27617 0.224597 -0.0385893 -4.23369 0.239221 -0.0379516 -4.19226 0.253536 -0.037329 
-4.15185 0.267556 -0.0367216 -4.27557 0.330727 -0.0379125 -4.2331 0.344186 -0.0372821 
-4.40598 0.855809 -0.0362767 -4.27267 0.84369 -0.0346409 -4.49508 1.73844 -0.0318562 
-4.44754 1.7363 -0.031259 -4.27172 0.189303 -0.0558811 -4.22929 0.204314 -0.0550536 
-4.27152 0.224679 -0.0556555 -4.22909 0.239303 -0.0548305 -4.14745 0.250516 -0.0533487 
-4.06787 0.26115 -0.0519062 -4.44758 0.866293 -0.0546696 -4.31134 0.853677 -0.0523937 
-4.39642 1.69767 -0.048564 -4.35099 1.69601 -0.0477892 -4.44281 0.847867 -0.0726492 
-4.34633 1.678 -0.0653592 -4.34623 1.69609 -0.0652438 -4.48528 0.858368 -0.091686 
-4.43297 0.866553 -0.108254 -4.38663 0.87445 -0.106783 -4.47532 0.877273 -0.12771 
-4.428 0.885152 -0.125998 -4.47029 0.896091 -0.145662 -3.77445 -2.20374 -0.152219 
-4.46526 0.914909 -0.163615 -4.46515 0.93364 -0.163495 -3.645 -2.12265 -0.160535 
-4.41319 0.922436 -0.179346 -3.97282 -2.36988 -0.194045 -3.79925 -2.24045 -0.184023 
-3.58156 -2.08406 -0.171489 -3.52502 -2.03319 -0.168172 -4.4553 0.933815 -0.199639 
-4.45519 0.952545 -0.199519 -4.45509 0.971276 -0.1994 -3.79523 -2.25599 -0.199182 
-3.63726 -2.13739 -0.189342 -3.52133 -2.04747 -0.182103 -3.79113 -2.25591 -0.214242 
-3.66304 -2.15671 -0.205665 -3.81975 -2.27739 -0.231619 -3.65909 -2.15664 -0.220153 
-3.8157 -2.29308 -0.246926 -3.81155 -2.293 -0.262132 -3.98482 -2.42751 -0.292437 
-3.87671 -2.33904 -0.283197 -3.9428 -2.40217 -0.30508 -3.87248 -2.33897 -0.298714 
-3.04884 -2.49988 -0.241563 -3.97173 -2.42728 -0.34044 -3.86402 -2.33882 -0.329748 
-4.00388 -2.45178 -0.360203 -3.89427 -2.3618 -0.348816 -3.99947 -2.4517 -0.376369 
-3.88999 -2.36172 -0.364488 -3.92131 -2.41819 -0.384345 -4.05994 -2.58955 -0.451383 
-3.98223 -2.51841 -0.44146 -3.90855 -2.45078 -0.432051 -3.87318 -2.41015 -0.427488 
-3.90442 -2.48352 -0.448093 -3.83487 -2.4187 -0.438879 -3.70189 -2.31064 -0.421353 
-3.60818 -2.23081 -0.408982 -3.86501 -2.47497 -0.459247 -3.76235 -2.38668 -0.445208 
-3.63557 -2.28252 -0.427897 -3.57516 -2.22555 -0.419606 -3.66188 -2.33411 -0.446957 
-3.63167 -2.29762 -0.442624 -3.60045 -2.26071 -0.438151 -3.54212 -2.20527 -0.429869 
-3.91049 1.47081 -0.459596 -3.8924 -2.64739 -0.496636 -3.8572 -2.60477 -0.49142 
-3.8571 -2.58852 -0.491316 -3.8229 -2.54714 -0.48625 -3.72249 -2.45759 -0.471553 
-3.65803 -2.36465 -0.461919 -3.59676 -2.30569 -0.452927 -3.5385 -2.24943 -0.444375 
[...]
POINT_DATA 5012
SCALARS z_coord float
LOOKUP_TABLE default
0.733131 0.721006 0.727288 0.727376 0.713697 0.719864 0.713873 0.71396 0.714048 
0.714135 0.706333 0.706421 0.704605 0.680845 0.680932 0.681019 0.692801 0.691012 
0.667719 0.667806 0.667893 0.679446 0.685498 0.708044 0.701626 0.683394 0.665738 
0.6492 0.7546 0.693914 0.681468 0.658016 0.646881 0.630901 0.738434 0.76921 
0.769317 0.785971 0.803059 0.679597 0.729928 0.730036 0.559376 0.559458 0.65369 
0.641014 0.546991 0.551438 0.551603 0.61345 0.625652 0.51378 0.509986 0.506189 
0.506267 0.51022 0.586949 0.604211 0.486516 0.486592 0.483079 0.486745 0.486821 
0.486897 0.490565 0.490642 0.454881 0.454954 0.45171 0.455101 0.455174 0.455247 
0.458455 0.458529 0.443684 0.440523 0.455117 0.48178 0.482032 0.486032 0.486116 
0.518299 0.496597 0.492388 0.484209 0.480326 0.480412 0.480498 0.480584 0.48067 
0.523371 0.63493 0.495889 0.491641 0.491732 0.487481 0.48339 0.479298 0.483568 
0.496529 0.48793 0.534178 0.528706 0.617069 0.50393 0.4995 0.495069 0.534622 
0.517946 0.481606 0.491628 0.445992 0.417971 0.430475 0.402911 0.414959 0.395433 
0.399442 0.380072 0.372891 0.35116 0.361417 0.342871 0.33973 0.33419 0.324817 
0.318498 0.318587 0.315948 0.310788 0.310875 0.308441 0.306006 0.311135 0.298923 
0.296588 0.301404 0.301487 0.299256 0.29934 0.318829 0.309903 0.305024 0.302504 
0.290433 0.288208 0.283771 0.277323 0.271171 0.27125 0.271329 0.273419 0.271486 
0.273578 0.273657 0.275852 0.278048 0.278128 0.276092 0.276172 0.27837 0.28057 
0.282871 0.282953 0.283035 0.28534 0.285422 0.285505 0.285587 0.288496 0.288579 
0.28633 0.284181 0.284263 0.286578 0.28666 0.282275 0.303468 0.29499 0.301516 
0.291372 0.281891 0.293746 0.285387 0.358454 0.362875 0.362993 0.34736 0.359154 
0.363347 0.359388 0.359504 0.344206 0.326902 0.299786 0.294437 0.294532 0.29726 
0.300173 0.262556 0.265163 0.290104 0.295711 0.307609 0.298841 0.285156 0.280081 
0.280176 0.257383 0.244478 0.242225 0.301767 0.298589 0.286288 0.226863 0.27524 
0.27247 0.272581 0.269879 0.211502 0.261013 0.255664 0.253143 0.19614 0.241371 
0.236516 0.231783 0.180779 0.23428 0.224492 0.163839 0.211955 0.144613 0.194476 
0.190332 0.201059 0.194697 0.127571 0.17446 0.168997 0.181195 0.175569 0.114097 
0.156717 0.161783 0.156865 0.0994665 0.142808 0.141437 0.128228 0.128345 0.112957 
0.0858061 0.0859255 0.0862152 0.0689289 -0.00272998 0.0135396 0.0137731 0.0171029 0.0172224 
-0.00455263 -0.00366709 -0.00399962 -0.00388291 -0.00395527 -0.000967175 -0.000968844 -0.000849396 -0.0234333 
-0.0229391 -0.0208496 -0.020738 -0.0216486 -0.0218888 -0.0210715 -0.022027 -0.0189467 -0.0185042 
-0.0133975 -0.0393565 -0.0371583 -0.0385893 -0.0379516 -0.037329 -0.0367216 -0.0379125 -0.0372821 
-0.0362767 -0.0346409 -0.0318562 -0.031259 -0.0558811 -0.0550536 -0.0556555 -0.0548305 -0.0533487 
-0.0519062 -0.0546696 -0.0523937 -0.048564 -0.0477892 -0.0726492 -0.0653592 -0.0652438 -0.091686 
-0.108254 -0.106783 -0.12771 -0.125998 -0.145662 -0.152219 -0.163615 -0.163495 -0.160535 
-0.179346 -0.194045 -0.184023 -0.171489 -0.168172 -0.199639 -0.199519 -0.1994 -0.199182 
-0.189342 -0.182103 -0.214242 -0.205665 -0.231619 -0.220153 -0.246926 -0.262132 -0.292437 
-0.283197 -0.30508 -0.298714 -0.241563 -0.34044 -0.329748 -0.360203 -0.348816 -0.376369 
-0.364488 -0.384345 -0.451383 -0.44146 -0.432051 -0.427488 -0.448093 -0.438879 -0.421353 
-0.408982 -0.459247 -0.445208 -0.427897 -0.419606 -0.446957 -0.442624 -0.438151 -0.429869 
-0.459596 -0.496636 -0.49142 -0.491316 -0.48625 -0.471553 -0.461919 -0.452927 -0.444375 
-0.444281 -0.465624 -0.466702 -0.476329 -0.530264 -0.507706 -0.491949 -0.481808 -0.484189 
-0.493284 -0.47943 -0.502493 -0.502391 -0.492243 -0.484688 -0.502867 -0.498001 -0.507488 
-0.503472 -0.503393 -0.50725 -0.515435 -0.515456 -0.511349 -0.511271 -0.536209 -0.5318 
-0.659729 -0.659629 -0.540134 -0.535838 -0.649021 -0.642549 -0.568177 -0.558813 -0.553987 
-0.536174 -0.52352 -0.532992 -0.544338 -0.54426 -0.544182 -0.5356 -0.556309 -0.560607 
-0.556153 -0.547545 -0.564745 -0.583252 -0.564586 -0.567499 -0.55872 -0.554404 -0.562726 
-0.648669 -0.636208 -0.570433 -0.570356 -0.557303 -0.579002 -0.655959 -0.65041 -0.638234 
-0.577274 -0.555844 -0.539775 -0.532049 -0.657775 -0.646633 -0.610218 -0.61014 -0.605475 
-0.595014 -0.535078 -0.52028 -0.520212 -0.51329 -0.675878 -0.670367 -0.66461 -0.659101 
-0.664362 -0.5898 -0.589726 -0.589652 -0.584298 -0.584224 -0.584149 -0.557171 -0.541673 
-0.534133 -0.53045 -0.527009 -0.677014 -0.596522 -0.59085 -0.590629 -0.590556 -0.594916 
-0.540553 -0.51581 -0.505931 -0.6075 -0.602619 -0.597565 -0.592975 -0.597419 -0.59283 
-0.53259 -0.529026 -0.595225 -0.538545 -0.590074 -0.585783 -0.585714 -0.581689 -0.577927 
-0.57786 -0.577793 -0.605972 -0.61006 -0.609988 -0.614333 -0.609844 -0.609772 -0.555574 
-0.551884 -0.530853 -0.527425 -0.534091 -0.534027 -0.530601 -0.530538 -0.527112 -0.527049 
-0.53371 -0.540628 -0.579851 -0.579784 -0.612294 -0.612223 -0.616648 -0.616576 -0.573187 
-0.565481 -0.561727 -0.550864 -0.547376 -0.53362 -0.530135 -0.533495 -0.530011 -0.52679 
-0.526729 -0.533246 -0.543181 -0.582247 -0.586001 -0.55197 -0.569018 -0.582467 -0.589667 
-0.582343 -0.584399 -0.584339 -0.584278 -0.592526 -0.592468 -0.595857 -0.578045 -0.584671 
-0.597687 -0.586705 -0.570721 -0.577122 -0.586427 -0.599639 -0.599582 -0.598408 -0.598352 
-0.598296 -0.603189 -0.603134 -0.608096 -0.567086 -0.569222 -0.570817 -0.571296 -0.571264 
-0.571232 -0.5712 -0.571168 -0.569493 -0.569461 -0.571072 -0.572682 -0.57265 -0.572618 
-0.570944 -0.56927 -0.567048 -0.565374 -0.566985 -0.565311 -0.565279 -0.563606 -0.563574 
-0.565184 -0.565152 -0.563479 -0.563448 -0.566698 -0.566667 -0.568823 -0.566603 -0.566571 
-0.568727 -0.568695 -0.56638 -0.568535 -0.563037 -0.557507 -0.557476 -0.557444 -0.565063 
-0.56724 -0.568834 -0.568802 -0.568644 -0.571925 -0.571893 -0.568549 -0.568518 -0.568486 
-0.57011 -0.570078 -0.566736 -0.566704 -0.564466 -0.562779 -0.562717 -0.562685 -0.564214 
-0.568043 -0.566357 -0.562341 -0.562309 -0.563932 -0.5639 -0.562215 -0.562184 -0.563165 
-0.558033 -0.56186 -0.563496 -0.562576 -0.553406 -0.56219 -0.567242 -0.554525 -0.571878 
-0.554409 -0.555409 -0.558166 -0.558137 -0.559659 -0.560808 -0.552912 -0.562293 -0.560484 
-0.568489 -0.564871 -0.569288 -0.569259 -0.571854 -0.568789 -0.573168 -0.571304 -0.561908 
-0.574437 -0.572559 -0.561211 -0.568801 -0.562355 -0.561504 -0.559586 -0.561449 -0.577191 
-0.563741 -0.561175 -0.561148 -0.580188 -0.576966 -0.575039 -0.560143 -0.560117 -0.563285 
-0.565175 -0.565148 -0.566399 -0.566372 -0.578094 -0.555204 -0.559683 -0.561587 -0.562848 
-0.564108 -0.564081 -0.564054 -0.565958 -0.577109 -0.570017 -0.574526 -0.575795 -0.577711 
-0.57574 -0.577657 -0.577629 -0.575658 -0.575631 -0.575604 -0.57752 -0.577492 -0.57876 
-0.580676 -0.580648 -0.580621 -0.580593 -0.580566 -0.580538 -0.581778 -0.58175 -0.580098 
-0.578129 -0.577486 -0.576674 -0.580087 -0.580065 -0.583479 -0.581859 -0.581836 -0.581814 
-0.581791 -0.397707 -0.406508 -0.397205 -0.409634 -0.425935 -0.459321 -0.471091 -0.483741 
-0.505618 -0.523217 -0.526341 -0.57867 -0.580013 -0.461528 -0.478036 -0.490466 -0.507467 
-0.510834 -0.574873 -0.572864 -0.506023 -0.504899 -0.503925 -0.494492 -0.594561 0.549268 
-0.143374 -0.5069 -0.501506 -0.488689 -0.480621 -0.583965 -0.593057 0.556031 0.55023 
0.544318 0.538294 0.482693 0.473308 -0.151122 -0.156564 -0.16577 -0.174746 -0.509875 
-0.492247 -0.483917 -0.48701 -0.582489 -0.583887 -0.567474 0.553758 0.544722 0.535686 
0.529759 0.477405 0.470947 -0.191274 -0.489681 -0.496463 -0.492006 -0.566167 -0.567851 
0.533413 0.524377 0.477971 0.468586 -0.269806 -0.495474 -0.494582 -0.568963 -0.577999 
-0.579453 -0.57358 0.543931 0.528267 0.472714 0.460553 -0.272804 -0.287298 -0.296647 
-0.489915 -0.500014 -0.57493 -0.576523 -0.57438 -0.568642 0.5416 0.532336 -0.311568 
-0.323489 -0.323959 -0.321788 -0.327479 -0.335696 -0.512655 -0.517872 -0.562629 -0.571776 
-0.577217 -0.575018 0.532812 0.530006 0.527197 -0.323149 -0.329407 -0.341428 -0.347349 
-0.349947 -0.34967 -0.512939 -0.576314 -0.581691 -0.577263 0.533606 0.540767 0.534704 
-0.356472 -0.359051 -0.34958 -0.346478 -0.351633 -0.362172 -0.372711 -0.38325 -0.574757 
-0.584021 0.548615 0.546 0.536172 -0.385901 -0.393514 -0.40398 -0.411192 -0.506527 
-0.57317 -0.586351 0.553356 0.550574 0.54418 -0.409456 -0.417439 -0.428715 -0.501715 
-0.500865 -0.579418 -0.588682 -0.46569 -0.469468 -0.500749 -0.4965 -0.5778 -0.587004 
-0.476752 -0.488773 -0.496462 -0.499908 -0.498839 -0.593343 0.55485 0.54834 0.541463 
-0.524942 -0.532413 -0.521872 -0.520284 -0.587884 0.553209 -0.564928 -0.5726 -0.564686 
-0.557403 -0.559711 -0.531192 -0.525625 0.550539 -0.557928 -0.560445 -0.562749 -0.541837 
-0.535679 0.547868 -0.542291 -0.527369 -0.521866 0.545198 0.538304 0.531457 0.516915 
0.502732 0.488703 0.475014 0.461291 0.430126 0.419738 0.41493 -0.513801 -0.524577 
0.546307 0.539522 0.528746 0.517971 0.507195 0.496419 0.475513 0.464974 0.436362 
0.425745 -0.562303 -0.536509 -0.513582 -0.581888 -0.575599 0.544383 0.533448 0.412458 
-0.503567 -0.506271 -0.572599 -0.577915 0.5455 0.526911 0.412599 -0.506199 -0.505078 
0.426501 0.415647 0.404794 -0.512565 -0.511461 0.407753 -0.515217 -0.521931 -0.576315 
-0.514098 -0.520494 -0.526965 -0.525546 -0.577275 -0.574878 -0.52956 -0.532095 -0.556459 
-0.532155 -0.538443 -0.562587 0.786224 0.775759 0.770473 0.765342 0.760055 0.771246 
0.663294 0.637457 -0.55367 -0.548102 0.693967 0.676976 0.655394 0.639337 -0.538021 
-0.556046 0.803492 0.680437 0.663897 0.647777 0.636501 -0.531586 -0.562145 0.79543 
0.776695 0.677556 0.661039 -0.548998 -0.555079 -0.585991 -0.574129 -0.563094 0.805866 
0.779873 0.690561 0.668265 -0.551486 -0.565463 -0.588012 -0.572758 -0.56499 0.776746 
0.758167 0.745841 0.721628 0.692963 0.67062 -0.558007 -0.567968 -0.590034 -0.5717 
-0.5608 -0.550551 -0.560513 -0.574592 -0.58875 -0.570287 -0.559624 -0.573543 -0.575472 
-0.57298 -0.587112 -0.560117 -0.555706 -0.565823 -0.597205 -0.601857 -0.576134 -0.568418 
-0.574449 -0.602861 -0.597004 -0.57809 -0.531577 -0.560697 -0.566783 -0.586014 -0.597773 
-0.595411 -0.576698 -0.527013 -0.525397 -0.587717 -0.576061 -0.582106 -0.579899 -0.578054 
-0.582816 -0.5254 -0.523793 -0.604765 -0.596717 -0.580726 -0.576834 -0.565119 -0.519324 
-0.522333 -0.612448 -0.599447 -0.579828 -0.577976 -0.586288 -0.57727 -0.517771 -0.516486 
-0.605505 -0.578555 -0.580067 -0.588379 -0.576082 -0.522351 -0.60202 -0.588584 -0.582968 
-0.580669 -0.589077 -0.511749 -0.597243 -0.594722 -0.585121 -0.5194 -0.591717 -0.585702 
-0.583577 -0.578027 -0.525847 -0.519301 -0.59898 -0.596632 -0.582829 -0.580869 -0.519449 
-0.522428 -0.597487 -0.583743 -0.570844 -0.572315 -0.522631 -0.525555 -0.603611 -0.585961 
-0.524303 -0.522689 -0.520939 -0.524078 -0.595541 -0.596722 -0.517732 -0.516346 -0.519378 
-0.52255 -0.589834 -0.587652 -0.516292 -0.510075 -0.593976 -0.605428 -0.582945 -0.588396 
-0.586116 -0.514613 -0.504254 -0.598498 -0.610419 -0.622341 -0.618547 -0.58526 -0.513242 
-0.502828 -0.611905 -0.618721 -0.630742 -0.590226 -0.587575 -0.516424 -0.50154 -0.604495 
-0.616417 -0.589891 -0.510153 -0.496028 -0.604055 -0.596248 -0.617271 -0.572971 -0.582416 
-0.591861 -0.588357 0.337307 0.327521 0.316345 0.306258 0.277311 -0.589991 0.324201 
0.29101 0.28142 -0.56923 0.310889 0.148988 0.132829 0.118775 0.10051 0.0843502 
0.0686877 0.310054 0.144923 0.132365 0.115646 0.0972656 0.0802852 0.0645762 -0.57668 
-0.567092 0.142188 0.0445625 0.0278433 0.0108029 0.0403567 0.0236375 0.00671058 1.30423 
-0.641702 -0.638346 1.32223 0.142552 0.104895 0.0894204 -0.585988 -0.583552 0.102656 
0.0875216 0.0695743 0.0235764 -0.573265 -0.57475 0.101174 0.0862053 0.0700039 0.0530907 
0.0191992 0.00260847 -0.581094 -0.583222 -0.565393 -0.579937 -0.584248 -0.581198 -0.583182 
-0.581186 -0.56594 -0.57534 -0.564035 -0.563693 -0.573723 -0.531502 -0.540864 -0.544128 
-0.544801 -0.583298 -0.574901 -0.581264 -0.58303 -0.589335 -0.586547 -0.500023 -0.57814 
-0.584057 -0.59035 -0.587659 -0.580499 -0.586404 -0.597805 -0.592996 -0.580406 -0.577596 
-0.575004 -0.528575 -0.526301 -0.601131 -0.513764 -0.530677 -0.528349 -0.579126 -0.522245 
-0.538775 -0.588146 -0.539186 -0.542933 -0.573012 -0.572434 -0.561443 -0.524339 -0.553648 
-0.609297 -0.584309 -0.600839 -0.606723 -0.646975 -0.640835 -0.643428 -0.652109 -0.559029 
0.649921 0.627999 -0.654068 -0.662903 0.654769 0.633061 0.61184 -0.658274 -0.636956 
-0.620242 -0.615206 -0.617267 -0.612289 -0.635499 -0.647178 -0.65129 -0.662148 0.846707 
0.830547 0.814388 0.789777 0.86567 0.849688 0.824986 -0.549405 -0.552972 -0.576583 
-0.547011 -0.557178 -0.580837 -0.59775 -0.59728 -0.606391 -0.629969 -0.63871 -0.647442 
-0.634493 -0.603502 -0.599325 -0.601273 -0.60311 -0.604861 -0.593436 -0.600556 -0.607682 
-0.59883 -0.6057 -0.607234 -0.607477 -0.614789 -0.621665 -0.617676 -0.619056 -0.631077 
-0.632328 -0.6362 -0.631669 -0.652514 -0.642523 -0.655512 -0.65643 -0.656969 -0.647297 
-0.658511 -0.659381 -0.671113 -0.67713 -0.663034 -0.673622 -0.659559 -0.677135 -0.657082 
-0.664966 -0.672815 -0.665653 -0.653678 -0.648016 -0.654253 -0.643376 -0.644713 -0.649197 
-0.643674 -0.645927 -0.646978 -0.642657 -0.643772 -0.639388 -0.647183 -0.642758 -0.650531 
-0.647261 -0.537701 0.322852 0.303332 0.289332 0.289978 0.302025 0.302517 0.309051 
0.308693 0.31642 0.319896 0.317211 0.305128 0.298559 0.30211 0.295172 0.278999 
0.296845 0.287185 0.279806 0.266495 0.287837 0.272516 0.291313 0.275992 0.252614 
-0.59475 -0.583336 0.294788 0.279468 -0.575903 -0.598263 0.295442 0.280279 -0.603997 
-0.599156 -0.588005 0.30174 0.283719 -0.58172 -0.559261 0.305215 0.289895 -0.334003 
-0.354889 -0.37162 -0.598637 -0.580903 0.308691 0.29337 -0.0666585 -0.125024 -0.146404 
-0.16276 -0.162323 -0.171318 -0.190119 -0.270577 -0.29005 -0.313712 -0.594885 -0.577352 
-0.599728 0.281525 0.266205 0.240152 0.238303 -0.0461314 -0.0638826 -0.0910154 -0.108478 
-0.124651 -0.142693 -0.156997 -0.166824 -0.180283 -0.266949 -0.286381 -0.306256 -0.330566 
-0.602822 -0.598423 -0.600562 -0.596296 0.25436 0.243703 0.234825 0.0730946 0.0562133 
0.00923285 -0.00641575 -0.0223966 -0.0394049 -0.0562895 -0.199345 -0.212785 -0.223229 -0.235894 
-0.257191 -0.599194 -0.608372 -0.617209 -0.618905 0.257836 0.242515 0.231601 0.13892 
0.125283 0.107274 0.0921752 0.075072 0.0586699 0.0431519 -0.00179258 -0.0174989 -0.0332527 
-0.634849 0.294858 0.279372 0.263885 0.127792 0.110863 0.094276 0.0780445 0.0162663 
0.00157663 -0.638607 0.298372 0.282885 0.0986296 0.0821743 0.0660712 0.0500316 0.0347575 
0.0197061 0.00513908 -0.642282 -0.658822 -0.659856 0.351825 0.336172 0.320519 0.304866 
0.101378 0.0850713 0.0690968 0.0537764 0.0381616 0.0231244 0.00798342 -0.662947 -0.663898 
-0.657306 0.417988 0.402335 0.386682 0.371029 0.355376 0.0415656 -0.667159 -0.667857 
-0.653717 0.421539 0.405886 0.394221 0.378398 0.362574 0.0611245 0.0456379 0.64638 
0.637646 0.628579 0.612926 0.597273 0.58162 0.565967 0.550314 0.540222 0.524399 
0.503355 0.487702 0.472049 0.456396 0.445281 0.429458 0.413634 0.649856 0.641159 
0.625672 0.610186 0.600824 0.585171 0.569518 0.553865 0.538212 0.522559 0.512165 
0.491253 0.461462 0.441908 0.431136 0.424345 0.412988 -0.621741 -0.623447 -0.638452 
-0.633244 0.692343 0.683973 0.668652 -0.686361 0.294867 0.271226 0.244589 -0.199989 
-0.207424 -0.244957 -0.26841 -0.682692 0.292592 0.26706 0.252357 -0.104402 -0.112454 
-0.121104 -0.141279 -0.16117 -0.164473 -0.176554 -0.671239 -0.672064 -0.665423 0.3323 
0.323594 0.308431 0.275464 0.25341 0.211586 0.166066 0.152777 -0.0959674 -0.107882 
-0.120712 -0.134843 -0.145684 -0.154463 -0.171526 -0.660235 -0.661157 -0.661983 0.659706 
0.352053 0.347242 0.335669 0.266383 0.244326 0.229624 0.216857 0.207621 0.188838 
0.170814 0.154811 0.0379362 0.0238151 0.00967404 -0.0482643 -0.0618294 -0.0801738 -0.0903729 
-0.658543 -0.659384 -0.640358 -0.629104 0.493338 0.488267 0.492342 0.472703 0.462332 
0.438792 0.416205 0.398106 0.391032 0.376475 0.36528 0.344142 0.335875 0.279633 
0.255388 0.243255 0.230901 0.222252 0.213125 0.192242 0.171192 0.154191 0.0405067 
0.0269042 -0.0322498 -0.0423562 -0.0562188 -0.0789198 -0.656015 -0.643735 0.538937 0.519974 
0.510675 0.285676 0.270672 0.141002 0.125208 0.112427 0.0980028 0.0838527 0.06995 
0.0565947 0.00258395 -0.0111465 -0.652645 -0.647049 0.5473 0.528012 0.513881 0.274076 
0.140826 0.128294 0.113868 0.101089 0.0863352 0.0725277 0.059296 -0.411568 -0.663386 
-0.650496 -0.632157 0.654144 0.613376 0.604743 0.584551 0.575629 0.555726 0.27237 
-0.64051 0.628562 0.619843 0.610994 0.59014 0.564374 0.389685 0.36485 0.344513 
0.33065 0.319577 0.305582 0.291588 0.287783 0.21975 0.209408 -0.327091 -0.345507 
-0.368415 -0.63846 0.636547 0.640463 0.414295 0.400023 0.382187 0.355192 0.34159 
0.327987 0.317113 0.303383 0.292207 0.273577 0.21385 0.200618 -0.639117 0.417532 
0.395901 0.260889 0.245363 0.222253 0.206973 -0.226232 -0.236761 -0.249528 -0.270043 
-0.660311 -0.654632 0.42077 0.263947 0.250468 0.233085 0.210031 -0.214418 -0.228281 
-0.237148 -0.657105 -0.65802 -0.658827 -0.653438 0.424008 0.236087 -0.204758 -0.227512 
-0.244096 -0.662133 -0.656738 0.427246 0.409142 0.270063 0.254452 -0.652655 -0.647434 
0.492138 0.482287 0.46773 0.448901 0.430483 0.262097 0.253237 -0.245583 -0.655903 
-0.656925 -0.651513 -0.640666 0.509821 0.495408 0.48559 0.273452 0.260796 0.248139 
-0.235468 -0.250473 -0.646483 -0.653867 -0.648539 -0.649612 0.508318 0.498678 0.493519 
0.278531 0.263667 0.249101 -0.178708 -0.197491 -0.212193 -0.229443 -0.247069 -0.633807 
-0.634924 -0.630611 -0.605605 0.540099 0.516088 0.506752 0.497284 0.309511 0.296629 
0.283747 -0.177446 -0.196371 -0.208858 -0.22356 -0.240926 -0.62218 -0.618342 0.533258 
0.524089 0.509958 0.500522 0.320256 0.307024 -0.207853 -0.59361 -0.610378 0.541426 
0.513028 0.328847 -0.202187 -0.219336 -0.234187 -0.59586 -0.607693 -0.62486 -0.605858 
1.03696 0.539607 0.453215 0.435925 0.422569 0.402208 0.331905 0.310422 -0.196653 
-0.220998 -0.23616 -0.610222 -0.627464 -0.613155 1.02902 0.431408 0.414836 0.398494 
0.334962 0.31603 -0.207908 -0.235393 -0.253696 -0.603378 -0.647039 -0.647772 -0.589704 
1.03779 0.95778 0.508761 0.460607 0.447495 0.417784 0.408158 0.371338 0.354501 
-0.209228 -0.229281 -0.247237 -0.339158 1.08234 1.05335 0.534421 0.507277 0.48001 
0.458369 0.439203 0.346992 -0.241003 -0.244975 -0.253967 -0.300028 -0.315852 -0.33551 
1.05034 0.483096 0.47164 0.347071 0.327846 -0.612187 1.08213 1.03123 0.983806 
0.347194 0.328037 0.216463 0.209809 -0.594144 1.07412 0.353243 0.333906 0.217418 
0.209507 -0.609817 1.13155 1.06602 0.356328 0.339831 0.218415 0.209205 1.13539 
1.09339 0.359414 0.219456 0.208982 0.365681 0.208692 -0.605587 1.03235 0.526623 
0.365586 0.351984 0.209722 -0.621596 0.979516 0.955216 0.524799 0.371911 0.209392 
0.189177 0.963898 0.905181 0.875052 0.522901 0.208013 0.198739 -0.638265 0.868087 
0.862616 0.849261 0.526376 0.207736 0.199915 0.838935 0.82558 0.499882 0.490108 
0.203707 0.193736 -0.663511 -0.664054 -0.644155 0.825873 0.820039 0.807041 0.498476 
0.493411 0.194194 -0.661494 -0.641709 0.828795 0.822987 0.80999 0.501714 0.487442 
0.189412 0.177264 -0.638289 -0.639263 0.917687 0.872373 0.8446 0.824503 0.528475 
0.514344 0.495617 0.481623 0.190552 0.177438 -0.624913 0.904476 0.860404 0.840166 
0.827399 0.574074 0.559943 0.545812 0.531681 0.508173 0.193967 0.180672 -0.639319 
-0.63536 -0.63173 0.889091 0.876209 0.571941 0.557946 0.539043 0.529956 0.506674 
0.196245 0.185105 -0.63295 -0.630514 -0.631365 0.874877 0.855255 0.871493 0.6171 
0.603105 0.583776 0.491663 0.473935 -0.628188 1.22031 0.885011 0.620275 0.617805 
0.586921 0.490472 0.476993 1.20326 1.20092 1.1988 0.936505 0.900407 0.685815 
0.671684 0.67666 0.655751 0.489225 0.47587 0.185225 1.20155 1.20907 0.923375 
0.903254 0.668608 0.673433 0.652824 0.587786 0.568934 0.560325 0.492255 0.4789 
-0.612087 0.903459 0.876743 0.70183 0.688351 0.674872 0.655549 0.653635 0.570314 
0.562062 0.553562 0.490924 0.477692 0.191023 0.906258 0.886408 0.758544 0.745547 