# vtk DataFile Version 4.2
vtk output
ASCII
DATASET POLYDATA
POINTS 7977 float
-4.3904 -1.89388 0.998305 -4.43266 -1.89695 1.00885 -4.43258 -1.88002 1.00883 
-4.35002 -1.82517 0.988232 -4.34993 -1.80858 0.988212 -4.38969 -1.75984 0.998143 
-4.30826 -1.70775 0.977823 -4.26918 -1.67457 0.96807 -4.15544 -1.60993 0.939688 
-4.04839 -1.54908 0.912975 -3.51796 -1.95198 0.76878 -3.49227 -1.923 0.762467 
-4.38604 -1.89392 0.982128 -4.38595 -1.87717 0.982108 -4.34579 -1.8418 0.97224 
-4.38577 -1.84366 0.982067 -4.38533 -1.75988 0.981966 -4.26503 -1.69086 0.952407 
-4.2271 -1.65832 0.943088 -4.18917 -1.62611 0.93377 -4.08002 -1.56415 0.906949 
-2.72902 1.69599 0.575221 -2.72892 1.71553 0.575198 -3.48897 -1.93598 0.749988 
-3.46441 -1.90781 0.74405 -4.3412 -1.79208 0.956167 -4.34111 -1.7755 0.956147 
-4.38105 -1.77668 0.965809 -2.73984 1.68637 0.569022 -2.73979 1.6962 0.56901 
-2.72648 1.69597 0.56579 -2.90727 1.90717 0.609542 -3.4856 -1.93601 0.737492 
-3.48553 -1.92307 0.737477 -3.461 -1.895 0.73164 -3.48539 -1.89719 0.737445 
-2.78142 1.71948 0.570047 -2.76592 1.71783 0.566356 -2.682 1.66411 0.546375 
-2.6687 1.66359 0.54321 -2.93652 1.9324 0.606979 -3.25632 2.42705 0.683135 
-3.21434 2.40224 0.673142 -3.17348 2.37804 0.663412 -3.13371 2.35447 0.653945 
-3.45779 -1.92071 0.719276 -3.45772 -1.90787 0.719261 -3.45766 -1.89503 0.719245 
-3.48202 -1.89722 0.72495 -3.21636 1.43985 0.66284 -3.19533 1.44049 0.657914 
-3.21624 1.46361 0.662811 -2.80764 1.71057 0.567128 -2.79325 1.71007 0.563759 
-2.8384 1.75391 0.574333 -2.85377 1.77577 0.577935 -3.23231 2.3967 0.666603 
-3.23224 2.40867 0.666588 -3.19032 2.38377 0.656769 -3.45431 -1.89507 0.70685 
-3.47865 -1.89725 0.712455 -3.25529 1.43799 0.661047 -3.23428 1.43899 0.656208 
-3.23422 1.45096 0.656193 -2.98327 1.86423 0.598402 -2.98322 1.87513 0.598389 
-3.31502 2.47162 0.674814 -3.20822 2.39029 0.650215 -3.14763 2.34881 0.636261 
-3.45097 -1.8951 0.694456 -3.47527 -1.89729 0.699959 -3.45083 -1.86942 0.694425 
-3.95655 -1.44557 0.808931 -3.25215 1.43796 0.649402 -3.23116 1.43896 0.64465 
-3.2311 1.45093 0.644635 -3.10729 2.09718 0.616596 -3.12593 2.12368 0.620814 
-3.14566 2.15123 0.625282 -3.20537 2.34274 0.638802 -3.26797 2.40885 0.652974 
-3.35694 2.49845 0.673119 -3.44762 -1.89513 0.682061 -3.4719 -1.89732 0.687464 
-3.44749 -1.86946 0.68203 -3.92058 -1.43268 0.787298 -3.20752 1.35659 0.628528 
-3.22836 1.37908 0.633165 -3.2283 1.39105 0.63315 -3.22823 1.40302 0.633136 
-3.26997 1.43674 0.642423 -3.10516 1.93678 0.605731 -3.08532 1.9335 0.601317 
-3.06659 1.93087 0.597147 -3.03027 1.91483 0.589066 -3.03021 1.92596 0.589052 
-3.03015 1.93709 0.589039 -3.04877 1.96255 0.593181 -3.14269 2.13958 0.614077 
-3.1624 2.16722 0.618462 -3.2234 2.31281 0.632031 -3.22333 2.32478 0.632017 
-3.22327 2.33675 0.632002 -3.37673 2.51849 0.666148 -3.41982 -1.85457 0.664317 
-3.44407 -1.85665 0.66962 -3.44401 -1.84381 0.669604 -3.46826 -1.84558 0.674906 
-3.91671 -1.43271 0.772932 -3.63525 0.940553 0.711272 -3.12427 1.30463 0.599535 
-3.16377 1.33608 0.608169 -3.18348 1.35784 0.612479 -3.10218 1.93675 0.594672 
-3.08236 1.93347 0.59034 -3.06364 1.93084 0.586248 -3.02737 1.9148 0.578318 
-3.02731 1.92593 0.578304 -3.04591 1.95131 0.582369 -3.04585 1.96252 0.582355 
-3.15941 2.15548 0.607174 -3.32777 2.40369 0.643971 -3.37378 2.45529 0.654027 
-3.37371 2.46792 0.654011 -3.46509 -1.88444 0.662458 -3.46502 -1.8715 0.662442 
-3.46495 -1.85856 0.662426 -3.51457 -1.8755 0.673081 -3.94482 -1.44569 0.765435 
-3.63167 0.940518 0.698022 -3.08284 1.28539 0.58015 -3.08278 1.29676 0.580136 
-3.06406 1.29864 0.576116 -3.02471 1.87024 0.567624 -3.02465 1.88138 0.56761 
-3.02459 1.89251 0.567597 -3.04299 1.95128 0.571543 -3.00675 1.93469 0.563764 
-3.21741 2.26487 0.608974 -3.30282 2.34809 0.627306 -3.3937 2.43664 0.646814 
-3.37062 2.42999 0.641859 -3.41766 2.48251 0.651957 -3.4669 2.53731 0.662525 
-3.43745 -1.86955 0.644846 -3.9409 -1.44573 0.750937 -3.68407 0.957593 0.696571 
-3.06136 1.25346 0.565272 -3.04376 1.25604 0.561561 -3.06124 1.27604 0.565244 
-2.86965 1.74726 0.524811 -2.96884 1.90771 0.545706 -3.27784 2.30529 0.610809 
-3.32156 2.35389 0.62002 -3.32149 2.36632 0.620005 -3.34441 2.39804 0.624833 
-3.34434 2.41057 0.624818 -3.34428 2.42311 0.624803 -3.36719 2.45522 0.62963 
-3.43424 -1.89526 0.632482 -3.45842 -1.89745 0.637483 -3.97111 -1.4596 0.743498 
-4.22012 -1.20396 0.794984 -4.29923 -1.21199 0.81135 -3.73854 0.975338 0.695106 
-3.0409 1.2448 0.550748 -3.04084 1.25602 0.550735 -3.02216 1.2579 0.54687 
-2.89864 1.77056 0.521259 -3.03714 1.95122 0.549891 -2.98349 1.92116 0.538796 
-3.2113 2.24086 0.585888 -3.40669 -1.88016 0.615172 -3.43083 -1.88246 0.620072 
-3.93308 -1.4458 0.72194 -4.14126 -1.19667 0.764155 -3.09395 1.23791 0.551284 
-3.15188 1.27744 0.563034 -3.05548 1.2534 0.543474 -3.01932 1.24674 0.536136 
-2.9811 1.83328 0.528301 -3.08994 1.99391 0.550366 -3.03416 1.9624 0.539051 
-3.52649 -1.95723 0.627391 -3.89732 -1.4329 0.701102 -4.13711 -1.19671 0.748783 
-3.14902 1.24229 0.551775 -3.12928 1.24463 0.547847 -3.14889 1.2657 0.551746 
-3.01322 1.84786 0.524658 -3.04918 1.88554 0.531807 -3.18516 2.06927 0.558838 
-3.10544 2.01965 0.542982 -3.54939 -1.97377 0.619727 -3.89345 -1.43294 0.686736 
-4.09569 -1.18496 0.726138 -3.18636 1.26133 0.548348 -3.16555 1.26333 0.54429 
-3.20697 1.29507 0.552363 -2.99288 1.83504 0.51051 -3.10293 1.92734 0.531957 
-3.18206 2.06923 0.547367 -3.182 2.08112 0.547353 -2.796 1.81354 0.472114 
-2.70871 1.76467 0.455097 -3.57216 -1.97682 0.611828 -4.02315 -1.47196 0.697902 
-4.13042 -1.4993 0.718405 -4.05655 -1.1739 0.704224 -4.05646 -1.1583 0.704205 
-3.18371 1.17813 0.536978 -3.22509 1.20852 0.544879 -3.24574 1.22993 0.548821 
-3.24568 1.24208 0.548807 -3.16255 1.25151 0.53292 -3.11958 1.93017 0.524577 
-3.15872 1.97075 0.532047 -4.12636 -1.51526 0.703053 -4.01748 -1.16285 0.682602 
-4.0524 -1.15834 0.689135 -3.1808 1.14246 0.52555 -3.12082 1.12834 0.514331 
-3.14037 1.14855 0.517984 -3.22188 1.22055 0.533219 -3.22182 1.23261 0.533205 
-3.20086 1.27106 0.529276 -3.19705 1.98932 0.528404 -3.19698 2.00129 0.52839 
-3.98012 -1.45791 0.661645 -4.12213 -1.49938 0.687661 -4.01345 -1.16289 0.667678 
-4.04833 -1.15838 0.674065 -4.08321 -1.15356 0.68045 -3.6586 0.957343 0.602188 
-3.15703 1.13354 0.510296 -3.1569 1.15712 0.510267 -3.23941 1.22986 0.525358 
-3.17733 1.21372 0.513993 -3.28274 1.28655 0.533279 -3.26091 1.28868 0.529282 
-3.26085 1.30093 0.529267 -3.19399 1.97732 0.516861 -3.19393 1.98929 0.516847 
-3.21451 2.01654 0.520609 -4.19317 -1.70781 0.685813 -4.11883 -1.65864 0.672482 
-4.01107 -1.47208 0.65313 -4.11798 -1.49942 0.672289 -4.04426 -1.15841 0.658994 
-4.04418 -1.14281 0.658975 -4.07902 -1.13784 0.665214 -4.04401 -1.11159 0.658937 
-4.00877 -1.03927 0.652604 -4.00868 -1.02381 0.652586 -3.97369 -0.998772 0.64631 
-4.76074 -0.878075 0.787265 -4.76064 -0.859344 0.787243 -4.71038 -0.831199 0.778231 
-4.76044 -0.821882 0.787197 -3.5462 0.923768 0.569229 -3.17461 1.1424 0.502609 
-3.13433 1.13679 0.495395 -3.17417 1.22557 0.502508 -3.23605 1.26629 0.513583 
-3.34684 1.33053 0.533411 -3.17032 1.9503 0.501628 -3.19087 1.97729 0.505303 
-3.17019 1.97407 0.501599 -3.19075 2.00123 0.505274 -4.04194 -1.48625 0.644322 
-4.0402 -1.15845 0.643924 -4.075 -1.15364 0.650017 -4.07491 -1.13788 0.649998 
-4.07483 -1.12212 0.649979 -4.07449 -1.05908 0.649902 -4.11146 -1.05366 0.656376 
-4.03945 -1.01797 0.643753 -4.70545 -0.812734 0.760335 -4.65634 -0.785437 0.751725 
-4.60831 -0.758757 0.743307 -3.56876 0.931783 0.560768 -3.17151 1.14237 0.491138 
-3.13128 1.13676 0.484093 -3.15045 1.21601 0.487427 -3.13084 1.2187 0.483994 
-3.19157 1.259 0.494618 -3.12717 1.90933 0.483155 -3.25069 2.01112 0.504759 
-3.20835 1.99236 0.497349 -3.80856 -1.69938 0.590075 -3.96978 -1.76415 0.617684 
-4.47311 -1.97692 0.703881 -4.60985 -1.93475 0.727267 -4.47246 -1.85446 0.703732 
-4.65741 -1.88348 0.73539 -4.60937 -1.84429 0.727158 -4.38592 -1.72986 0.688886 
-4.42832 -1.73088 0.696141 -4.07273 -1.50042 0.635221 -4.0708 -1.13792 0.634781 
-4.03588 -1.11167 0.628797 -4.0358 -1.09606 0.628778 -4.00088 -1.07026 0.622794 
-3.96596 -1.04477 0.616811 -4.55691 -0.768502 0.717853 -4.55682 -0.750614 0.717831 
-4.55672 -0.732726 0.71781 -4.55663 -0.714839 0.717788 -4.51084 -0.689548 0.709945 
-3.53917 0.923699 0.543178 -3.10469 1.88354 0.468537 -3.24757 1.99884 0.492951 
-3.68624 -1.66863 0.55616 -4.46762 -1.80202 0.686778 -4.38156 -1.74702 0.672377 
-4.33902 -1.71157 0.665258 -4.2584 -1.66021 0.651769 -4.03414 -1.54876 0.614257 
-3.99899 -1.4722 0.608358 -4.0319 -1.12732 0.613745 -3.99701 -1.10122 0.607908 
-3.96213 -1.07542 0.60207 -3.92943 -1.05056 0.596597 -3.96197 -1.04481 0.602033 
-4.41848 -0.727232 0.678215 -4.46186 -0.717356 0.685461 -4.46177 -0.699861 0.68544 
-4.4182 -0.675317 0.678152 -3.53565 0.923665 0.530152 -3.18171 1.94128 0.470674 
-3.24438 1.99881 0.481128 -3.62602 -1.64003 0.533326 -4.17581 -1.62675 0.622982 
-4.13877 -1.59485 0.616929 -4.06477 -1.54778 0.604845 -3.99488 -1.45678 0.593415 
-4.21046 -1.00306 0.628415 -4.17236 -0.976998 0.622193 -4.4137 -0.675361 0.661445 
-4.50153 -0.67195 0.675767 -4.54702 -0.661267 0.683182 -3.53214 0.92363 0.517126 
-2.86863 1.69598 0.408653 -3.26286 2.00214 0.472838 -3.35219 2.1306 0.487362 
-3.35213 2.14334 0.487347 -3.73778 -1.74146 0.538348 -3.62249 -1.65391 0.519979 
-4.2095 -1.62667 0.613328 -4.20618 -1.0031 0.612571 -4.16813 -0.977039 0.60651 
-4.45256 -0.682456 0.651637 -4.54245 -0.6792 0.665934 -4.63669 -0.675825 0.680919 
-2.91585 1.66646 0.406369 -2.86614 1.6429 0.398472 -2.83479 1.6317 0.39349 
-2.81854 1.63082 0.390906 -2.83468 1.65265 0.393464 -2.89938 1.70911 0.403733 
-3.32622 2.11368 0.47147 -3.34881 2.14331 0.475052 -3.73405 -1.7415 0.524499 
-3.67538 -1.69691 0.515388 -3.61888 -1.65395 0.506614 -4.16726 -1.61059 0.591595 
-4.05656 -1.54786 0.574412 -4.40679 -1.07347 0.628513 -4.16398 -0.993325 0.590846 
-4.12706 -0.967705 0.585113 -3.35226 0.86991 0.464304 -2.91303 1.66643 0.395914 
[...]
POINT_DATA 7977
SCALARS z_coord float
LOOKUP_TABLE default
0.998305 1.00885 1.00883 0.988232 0.988212 0.998143 0.977823 0.96807 0.939688 
0.912975 0.76878 0.762467 0.982128 0.982108 0.97224 0.982067 0.981966 0.952407 
0.943088 0.93377 0.906949 0.575221 0.575198 0.749988 0.74405 0.956167 0.956147 
0.965809 0.569022 0.56901 0.56579 0.609542 0.737492 0.737477 0.73164 0.737445 
0.570047 0.566356 0.546375 0.54321 0.606979 0.683135 0.673142 0.663412 0.653945 
0.719276 0.719261 0.719245 0.72495 0.66284 0.657914 0.662811 0.567128 0.563759 
0.574333 0.577935 0.666603 0.666588 0.656769 0.70685 0.712455 0.661047 0.656208 
0.656193 0.598402 0.598389 0.674814 0.650215 0.636261 0.694456 0.699959 0.694425 
0.808931 0.649402 0.64465 0.644635 0.616596 0.620814 0.625282 0.638802 0.652974 
0.673119 0.682061 0.687464 0.68203 0.787298 0.628528 0.633165 0.63315 0.633136 
0.642423 0.605731 0.601317 0.597147 0.589066 0.589052 0.589039 0.593181 0.614077 
0.618462 0.632031 0.632017 0.632002 0.666148 0.664317 0.66962 0.669604 0.674906 
0.772932 0.711272 0.599535 0.608169 0.612479 0.594672 0.59034 0.586248 0.578318 
0.578304 0.582369 0.582355 0.607174 0.643971 0.654027 0.654011 0.662458 0.662442 
0.662426 0.673081 0.765435 0.698022 0.58015 0.580136 0.576116 0.567624 0.56761 
0.567597 0.571543 0.563764 0.608974 0.627306 0.646814 0.641859 0.651957 0.662525 
0.644846 0.750937 0.696571 0.565272 0.561561 0.565244 0.524811 0.545706 0.610809 
0.62002 0.620005 0.624833 0.624818 0.624803 0.62963 0.632482 0.637483 0.743498 
0.794984 0.81135 0.695106 0.550748 0.550735 0.54687 0.521259 0.549891 0.538796 
0.585888 0.615172 0.620072 0.72194 0.764155 0.551284 0.563034 0.543474 0.536136 
0.528301 0.550366 0.539051 0.627391 0.701102 0.748783 0.551775 0.547847 0.551746 
0.524658 0.531807 0.558838 0.542982 0.619727 0.686736 0.726138 0.548348 0.54429 
0.552363 0.51051 0.531957 0.547367 0.547353 0.472114 0.455097 0.611828 0.697902 
0.718405 0.704224 0.704205 0.536978 0.544879 0.548821 0.548807 0.53292 0.524577 
0.532047 0.703053 0.682602 0.689135 0.52555 0.514331 0.517984 0.533219 0.533205 
0.529276 0.528404 0.52839 0.661645 0.687661 0.667678 0.674065 0.68045 0.602188 
0.510296 0.510267 0.525358 0.513993 0.533279 0.529282 0.529267 0.516861 0.516847 
0.520609 0.685813 0.672482 0.65313 0.672289 0.658994 0.658975 0.665214 0.658937 
0.652604 0.652586 0.64631 0.787265 0.787243 0.778231 0.787197 0.569229 0.502609 
0.495395 0.502508 0.513583 0.533411 0.501628 0.505303 0.501599 0.505274 0.644322 
0.643924 0.650017 0.649998 0.649979 0.649902 0.656376 0.643753 0.760335 0.751725 
0.743307 0.560768 0.491138 0.484093 0.487427 0.483994 0.494618 0.483155 0.504759 
0.497349 0.590075 0.617684 0.703881 0.727267 0.703732 0.73539 0.727158 0.688886 
0.696141 0.635221 0.634781 0.628797 0.628778 0.622794 0.616811 0.717853 0.717831 
0.71781 0.717788 0.709945 0.543178 0.468537 0.492951 0.55616 0.686778 0.672377 
0.665258 0.651769 0.614257 0.608358 0.613745 0.607908 0.60207 0.596597 0.602033 
0.678215 0.685461 0.68544 0.678152 0.530152 0.470674 0.481128 0.533326 0.622982 
0.616929 0.604845 0.593415 0.628415 0.622193 0.661445 0.675767 0.683182 0.517126 
0.408653 0.472838 0.487362 0.487347 0.538348 0.519979 0.613328 0.612571 0.60651 
0.651637 0.665934 0.680919 0.406369 0.398472 0.39349 0.390906 0.393464 0.403733 
0.47147 0.475052 0.524499 0.515388 0.506614 0.591595 0.574412 0.628513 0.590846 
0.585113 0.464304 0.395914 0.393399 0.395888 0.403868 0.406523 0.41785 0.445599 
0.452254 0.45574 0.452224 0.489154 0.493233 0.528675 0.60547 0.625069 0.625048 
0.474142 0.41848 0.427715 0.415531 0.395856 0.430474 0.475888 0.560229 0.543979 
0.518905 0.570982 0.595118 0.595097 0.476743 0.465023 0.416891 0.413874 0.416861 
0.410092 0.422221 0.42536 0.407053 0.4042 0.390311 0.421894 0.462638 0.5241 
0.555674 0.534017 0.499925 0.560526 0.554949 0.467373 0.44831 0.405246 0.402316 
0.405217 0.390214 0.38484 0.384826 0.42583 0.439431 0.436049 0.518915 0.534351 
0.545285 0.545264 0.556797 0.556776 0.556755 0.55663 0.55076 0.528843 0.494556 
0.555924 0.561745 0.592534 0.469852 0.390773 0.390758 0.393572 0.37112 0.423464 
0.423449 0.407256 0.401156 0.398174 0.518528 0.523891 0.529108 0.534615 0.540268 
0.540247 0.540101 0.54008 0.523629 0.488929 0.539395 0.545037 0.476989 0.45198 
0.379215 0.381927 0.360144 0.424241 0.417321 0.40436 0.404344 0.401164 0.518182 
0.523655 0.529128 0.523614 0.523593 0.523572 0.512056 0.512035 0.512015 0.453955 
0.434354 0.375761 0.344566 0.342182 0.388901 0.352567 0.357613 0.362796 0.4678 
0.49098 0.49096 0.49094 0.406556 0.403157 0.353561 0.366657 0.372183 0.331448 
0.329277 0.368122 0.34864 0.466031 0.457059 0.479702 0.390038 0.386884 0.34209 
0.357354 0.352116 0.327213 0.320686 0.345837 0.34335 0.334672 0.337082 0.478816 
0.446008 0.463524 0.386524 0.376919 0.376902 0.373858 0.333013 0.335393 0.339074 
0.334163 0.323345 0.32567 0.323316 0.32798 0.323201 0.332662 0.337448 0.337433 
0.340001 0.332483 0.347778 0.347763 0.472031 0.443466 0.447347 0.403861 0.382803 
0.382786 0.376203 0.379468 0.323792 0.319163 0.321456 0.321441 0.327251 0.334614 
0.31186 0.311846 0.314083 0.313967 0.325442 0.327914 0.327899 0.330309 0.335384 
0.335368 0.431699 0.43117 0.350664 0.314368 0.309912 0.307677 0.307663 0.315413 
0.286171 0.292084 0.294121 0.311309 0.306738 0.309001 0.315857 0.311174 0.313436 
0.318203 0.315781 0.306546 0.315736 0.320485 0.32047 0.318065 0.318049 0.437875 
0.41983 0.407227 0.411401 0.414993 0.318953 0.318937 0.298355 0.327612 0.250269 
0.251788 0.25648 0.273522 0.279087 0.301551 0.303832 0.301521 0.299289 0.305867 
0.305851 0.305836 0.420797 0.407721 0.399324 0.398795 0.398775 0.30191 0.297369 
0.28475 0.307514 0.31479 0.305124 0.305109 0.307451 0.247966 0.24334 0.247941 
0.252645 0.264359 0.296144 0.28953 0.28742 0.285281 0.295866 0.291456 0.29144 
0.295742 0.298028 0.295712 0.2935 0.289077 0.289062 0.328121 0.330925 0.330907 
0.325249 0.322516 0.322499 0.328018 0.33082 0.327983 0.322431 0.387107 0.379376 
0.390714 0.386634 0.386614 0.390652 0.411128 0.277228 0.295066 0.292718 0.290499 
0.277237 0.277222 0.275206 0.275191 0.277177 0.277162 0.279247 0.281332 0.28334 
0.285524 0.283309 0.31711 0.31979 0.317075 0.308948 0.311527 0.308914 0.370756 
0.359677 0.382046 0.370283 0.382003 0.378002 0.393661 0.271401 0.263696 0.266189 
0.273348 0.271232 0.265201 0.265186 0.267176 0.265156 0.267145 0.271139 0.279538 
0.27313 0.271015 0.261174 0.300687 0.305818 0.3058 0.292987 0.295447 0.29543 
0.347371 0.373208 0.365304 0.354076 0.361463 0.377204 0.384622 0.34429 0.318843 
0.257606 0.254457 0.256313 0.277821 0.275533 0.268975 0.253059 0.256783 0.264759 
0.262655 0.262639 0.268798 0.270961 0.275302 0.279824 0.282168 0.281947 0.277305 
0.275021 0.275005 0.277255 0.277238 0.274955 0.268411 0.272746 0.27273 0.264284 
0.262183 0.270506 0.281727 0.288959 0.293926 0.310104 0.310086 0.312965 0.32508 
0.33158 0.325041 0.321943 0.321923 0.318826 0.32813 0.334718 0.331439 0.334677 
0.331399 0.32803 0.32801 0.34486 0.327751 0.334331 0.334311 0.334229 0.366748 
0.298619 0.288296 0.243994 0.237182 0.246284 0.256072 0.242774 0.242759 0.242743 
0.24635 0.255991 0.242698 0.2482 0.260081 0.266443 0.249767 0.251731 0.247842 
0.255573 0.257622 0.25554 0.26172 0.270481 0.27511 0.279825 0.297932 0.297913 
0.289812 0.295124 0.315567 0.318642 0.312347 0.312307 0.318561 0.312267 0.309239 
0.3185 0.312207 0.30918 0.303318 0.311928 0.303067 0.305966 0.315044 0.34126 
0.227425 0.225798 0.232682 0.265707 0.270413 0.270395 0.270377 0.267997 0.270341 
0.282483 0.285066 0.282445 0.279825 0.277205 0.274748 0.28497 0.305106 0.215925 
0.253835 0.256047 0.2538 0.253782 0.251535 0.255975 0.26252 0.262502 0.26492 
0.262446 0.260126 0.260108 0.272361 0.294737 0.208785 0.205893 0.201639 0.201625 
0.23249 0.264398 0.282733 0.197053 0.195687 0.194321 0.191603 0.248575 0.256053 
0.263981 0.268501 0.274329 0.181498 0.181484 0.18147 0.171814 0.171801 0.171787 
0.171773 0.170631 0.211643 0.204867 0.20167 0.195559 0.185806 0.185791 0.195088 
0.189375 0.25509 0.255068 0.256684 0.17601 0.172339 0.171147 0.16303 0.164129 
0.164115 0.162988 0.161923 0.201372 0.194816 0.18308 0.173998 0.166953 0.160525 
0.161498 0.170362 0.188251 0.186759 0.185328 0.181193 0.239015 0.160709 0.159604 
0.158499 0.158485 0.15847 0.156148 0.155103 0.155089 0.155047 0.155032 0.156049 
0.199155 0.195652 0.193977 0.187505 0.184353 0.184336 0.170113 0.175335 0.178051 
0.223756 0.147828 0.147814 0.146798 0.146711 0.146697 0.142837 0.138346 0.18776 
0.186059 0.187722 0.169385 0.168003 0.161178 0.164932 0.205882 0.137186 0.137171 
0.138071 0.138945 0.13614 0.1317 0.128415 0.18082 0.17912 0.184282 0.146618 
0.143391 0.144102 0.144087 0.146222 0.185134 0.190049 0.123271 0.122471 0.125541 
0.127226 0.169755 0.143547 0.143512 0.138033 0.129864 0.132658 0.133637 0.171393 
0.169565 0.167777 0.173125 0.171235 0.16714 0.170673 0.165336 0.171965 0.119047 
0.119031 0.111887 0.110466 0.113896 0.113882 0.159579 0.124109 0.121417 0.117988 
0.119344 0.120179 0.122792 0.152119 0.153698 0.141823 0.137851 0.154972 0.143696 
0.148022 0.106849 0.106833 0.0992465 0.102252 0.102237 0.128518 0.110017 0.110001 
0.13445 0.134428 0.124293 0.119868 0.119849 0.118775 0.132075 0.101956 0.094096 
0.096004 0.0966493 0.0952811 0.0946352 0.0880131 0.0885378 0.0900689 0.0900543 0.105212 
0.0955653 0.111247 0.108116 0.104341 0.081994 0.0841697 0.0824525 0.0819027 0.0767939 
0.0767798 0.0780305 0.0784966 0.0919386 0.0880694 0.0793837 0.0698464 0.0698312 0.0655746 
0.0659347 0.0669535 0.0669389 0.0774773 0.08099 0.0816291 0.0701819 0.0770935 0.0732853 
0.0648399 0.0573867 0.0552764 0.0546615 0.0543553 0.0543412 0.0547675 0.0626398 0.0638468 
0.0652192 0.0580496 0.0580338 0.0564854 0.0522337 0.0456272 0.0438056 0.0433599 0.0429264 
0.0431219 0.0433836 0.0480099 0.0460671 0.0468397 0.0488451 0.049136 0.0431137 0.0419528 
0.0459884 0.0373111 0.0338107 0.0334948 0.0322001 0.0320583 0.0319997 0.0336494 0.0328782 
0.0269687 0.0267022 0.0274495 0.0227178 0.0215166 0.0214471 0.0208162 0.0207568 0.0206764 
0.020662 0.0200545 0.0111746 0.00980621 0.00936508 0.00905132 0.00922775 0.00911563 0.00909853 
0.00922257 0.00920713 0.00944656 0.00946939 0.00949246 0.00920564 0.00915038 -0.00435305 -0.00817871 
-0.00464231 -0.00307149 -0.00308693 -0.00193733 -0.00183219 -0.00281179 -0.00296128 -0.0265307 -0.0198864 
-0.0156106 -0.0156262 -0.0129179 -0.0127302 -0.0148608 -0.0144236 -0.0110335 -0.0459267 -0.0280052 
-0.0267752 -0.0267902 -0.0205618 -0.0203504 -0.0627222 -0.0647232 -0.0595104 -0.0395277 -0.0404155 
-0.0382807 -0.0378865 -0.0294536 -0.0291984 -0.0808066 -0.0828075 -0.0774109 -0.0533414 -0.0432506 
-0.0496033 -0.0491426 -0.0486817 -0.0389144 -0.0379207 -0.0836337 -0.0633058 -0.0519797 -0.0519927 
-0.052478 -0.0596769 -0.0591288 -0.0580769 -0.0478402 -0.047466 -0.102447 -0.0967567 -0.0935992 
-0.086858 -0.0808921 -0.0785755 -0.0809408 -0.0809571 -0.0761217 -0.0740284 -0.061305 -0.0617951 
-0.0628649 -0.0717971 -0.0711621 -0.0699116 -0.057925 -0.0570112 -0.114305 -0.118384 -0.073845 
-0.0770321 -0.0833694 -0.0812132 -0.0686043 -0.0665565 -0.133024 -0.137808 -0.153144 -0.101393 
-0.0864166 -0.0878581 -0.0892999 -0.0941038 -0.0925148 -0.0790002 -0.0772747 -0.145652 -0.150718 
-0.15616 -0.0973735 -0.0875556 -0.0862713 -0.126189 -0.12503 -0.16313 -0.170846 -0.170867 
-0.18929 -0.117074 -0.103989 -0.101688 -0.137509 -0.137525 -0.138821 -0.138837 -0.141359 
-0.144048 -0.145402 -0.145418 -0.145435 -0.146844 -0.148254 -0.14972 -0.189554 -0.189575 
-0.115217 -0.113458 -0.143544 -0.144824 -0.14737 -0.201547 -0.19927 -0.188649 -0.188668 
-0.131175 -0.132174 -0.142358 -0.161059 -0.161074 -0.16109 -0.208404 -0.213106 -0.20181 
-0.199748 -0.141675 -0.142001 -0.143073 -0.151458 -0.164657 -0.163272 -0.171896 -0.171911 
-0.173453 -0.173547 -0.173562 -0.176702 -0.176718 -0.217026 -0.217046 -0.224166 -0.15363 
-0.153959 -0.152841 -0.144194 -0.173913 -0.172432 -0.172447 -0.172462 -0.169627 -0.185817 
-0.185832 -0.187601 -0.187616 -0.23981 -0.234785 -0.237327 -0.169776 -0.165807 -0.164858 
-0.163667 -0.157909 -0.17839 -0.179874 -0.178448 -0.18142 -0.181435 -0.179933 -0.198211 
-0.198227 -0.198367 -0.200112 -0.200127 -0.252854 -0.18243 -0.176783 -0.177115 -0.175771 
-0.23441 -0.167164 -0.190035 -0.191576 -0.188537 -0.212434 -0.210622 -0.208964 -0.210809 
-0.212654 -0.262715 -0.190697 -0.186327 -0.188092 -0.185319 -0.18823 -0.248644 -0.177551 
-0.200036 -0.204977 -0.203293 -0.226946 -0.223016 -0.219415 -0.221273 -0.221289 -0.28092 
-0.200323 -0.198737 -0.199068 -0.197569 -0.186511 -0.214995 -0.21859 -0.216815 -0.237425 
-0.235411 -0.227736 -0.227752 -0.302582 -0.211382 -0.209714 -0.21173 -0.196825 -0.234316 
-0.232356 -0.232371 -0.230504 -0.291886 -0.267928 -0.26079 -0.258486 -0.24992 -0.249936 
-0.235867 -0.23782 -0.305259 -0.220677 -0.220691 -0.222789 -0.199999 -0.197258 -0.248489 
-0.250576 -0.3158 -0.292025 -0.276262 -0.262415 -0.25797 -0.24769 -0.247705 -0.330454 
-0.327018 -0.231654 -0.231668 -0.233848 -0.283442 -0.209979 -0.20711 -0.25852 -0.265141 
-0.292027 -0.289398 -0.279679 -0.272595 -0.255378 -0.257407 -0.259543 -0.298238 -0.32194 
-0.32525 -0.345864 -0.36096 -0.36098 -0.338702 -0.338721 -0.338741 -0.349592 -0.338779 
-0.242631 -0.239108 -0.242962 -0.304965 -0.218454 -0.216961 -0.216974 -0.215481 -0.212698 
-0.209808 -0.207132 -0.208434 -0.203069 -0.2005 -0.201802 -0.19805 -0.199244 -0.207215 
-0.207227 -0.208529 -0.247824 -0.247852 -0.310908 -0.289948 -0.287422 -0.267023 -0.267037 
-0.267052 -0.346755 -0.377137 -0.369073 -0.36145 -0.357704 -0.353957 -0.361509 -0.361528 
-0.255619 -0.251722 -0.248331 -0.252037 -0.327641 -0.219473 -0.222513 -0.219497 -0.263005 
-0.267175 -0.269324 -0.278102 -0.299901 -0.294852 -0.278696 -0.29513 -0.297681 -0.300231 
-0.308083 -0.319294 -0.3408 -0.340818 -0.393477 -0.397881 -0.377134 -0.361923 -0.37325 
-0.377193 -0.373289 -0.393619 -0.266678 -0.264598 -0.25908 -0.262936 -0.344878 -0.229018 
-0.227513 -0.227525 -0.280795 -0.276368 -0.276382 -0.276396 -0.276411 -0.299621 -0.326672 
-0.335556 -0.351545 -0.354918 -0.418889 -0.409695 -0.388603 -0.388622 -0.39272 -0.384582 
-0.38868 -0.405497 -0.440773 -0.281968 -0.275575 -0.369483 -0.365988 -0.358978 -0.240152 
-0.2386 -0.241887 -0.301811 -0.290045 -0.285565 -0.357954 -0.395832 -0.42151 -0.474565 
-0.293188 -0.286552 -0.383909 -0.387879 -0.384 -0.376725 -0.246485 -0.24335 -0.249781 
-0.253192 -0.308714 -0.389012 -0.381577 -0.377997 -0.35202 -0.348947 -0.343216 -0.415034 
-0.432744 -0.490866 -0.492439 -0.306747 -0.297529 -0.394647 -0.398444 -0.402501 -0.40252 
-0.402538 -0.255982 -0.441581 -0.451179 -0.451199 -0.42807 -0.411325 -0.399501 -0.399519 
-0.368245 -0.358664 -0.349914 -0.430251 -0.434816 -0.313189 -0.425485 -0.421188 -0.334836 
-0.337555 -0.457264 -0.452605 -0.452625 -0.425965 -0.398492 -0.374763 -0.362095 -0.342125 
-0.3449 -0.45487 -0.469547 -0.469567 -0.50816 -0.502367 -0.496713 -0.514179 -0.520293 
-0.514223 -0.508291 -0.508312 -0.514289 -0.508356 -0.514333 -0.324326 -0.431763 -0.431782 
-0.352204 -0.343835 -0.33854 -0.341209 -0.387679 -0.381 -0.362644 -0.490702 -0.470437 
-0.537872 -0.537983 -0.538006 -0.531734 -0.544488 -0.54451 -0.551113 -0.335463 -0.358423 
-0.400595 -0.397083 -0.380926 -0.490997 -0.496177 -0.568811 -0.562047 -0.555429 -0.56888 
-0.3466 -0.344412 -0.379327 -0.413511 -0.399581 -0.39322 -0.517363 -0.501277 -0.496131 
-0.490984 -0.48614 -0.496189 -0.517484 -0.52875 -0.501414 -0.523016 -0.534865 -0.540815 
-0.546917 -0.540857 -0.572875 -0.572898 -0.579764 -0.579786 -0.357737 -0.297715 -0.297727 
-0.404608 -0.397873 -0.426427 -0.415668 -0.408952 -0.496126 -0.501153 -0.496164 -0.486478 
-0.477104 -0.477122 -0.496239 -0.522245 -0.511619 -0.522284 -0.551373 -0.545286 -0.545307 
-0.545328 -0.533758 -0.366197 -0.412693 -0.308926 -0.308938 -0.424198 -0.443201 -0.435502 
-0.42857 -0.424886 -0.49138 -0.501063 -0.496087 -0.549791 -0.549811 -0.555635 -0.380347 
-0.428656 -0.428672 -0.322359 -0.429583 -0.433446 -0.426352 -0.44117 -0.433742 -0.510513 
-0.515666 -0.520654 -0.525974 -0.531294 -0.571771 -0.571791 -0.584577 -0.628013 -0.452495 
-0.460518 -0.327646 -0.327658 -0.331845 -0.442079 -0.44584 -0.43855 -0.453771 -0.449876 
-0.515103 -0.520057 -0.525012 -0.535413 -0.63816 -0.494044 -0.494061 -0.494078 -0.489648 
-0.408419 -0.39936 -0.461359 -0.465317 -0.337017 -0.33926 -0.450796 -0.443427 -0.458235 
-0.450748 -0.450764 -0.447115 -0.46234 -0.466371 -0.458531 -0.49161 -0.505081 -0.524144 
-0.529247 -0.529265 -0.524215 -0.529301 -0.539456 -0.50768 -0.503132 -0.416557 -0.407256 
-0.4584 -0.470205 -0.348679 -0.350805 -0.47063 -0.462946 -0.455441 -0.455457 -0.470895 
-0.478972 -0.470926 -0.535912 -0.50297 -0.507492 -0.507509 -0.455156 -0.43768 -0.42453 
-0.418233 -0.412608 -0.463112 -0.466919 -0.360279 -0.36264 -0.471304 -0.471319 -0.483289 
-0.500065 -0.500081 -0.504508 -0.508936 -0.508953 -0.513381 -0.508985 -0.50285 -0.502867 
-0.498632 -0.498648 -0.490347 -0.470768 -0.452664 -0.438995 -0.42921 -0.426395 -0.479101 
-0.487076 -0.374583 -0.382007 -0.483406 -0.483421 -0.483436 -0.483451 -0.483466 -0.483603 
-0.491526 -0.508299 -0.515657 -0.515673 -0.515689 -0.511349 -0.507199 -0.498848 -0.498863 
-0.478985 -0.464221 -0.443931 -0.495283 -0.503644 -0.521111 -0.544649 -0.564964 -0.386858 
-0.496195 -0.488229 -0.495507 -0.495523 -0.491489 -0.495553 -0.49152 -0.512322 -0.557251 
-0.557268 -0.542542 -0.537903 -0.533264 -0.528624 -0.52864 -0.528656 -0.528672 -0.533345 
-0.472482 -0.476186 -0.520575 -0.533995 -0.524881 -0.396527 -0.521526 -0.508504 -0.515867 
-0.515882 -0.503541 -0.503556 -0.503571 -0.503586 -0.495705 -0.49572 -0.495735 -0.49575 
-0.495764 -0.495779 -0.503692 -0.516145 -0.586652 -0.581309 -0.575965 -0.575982 -0.570836 
-0.560725 -0.551011 -0.551027 -0.483952 -0.483967 -0.528603 -0.542139 -0.546927 -0.403397 
-0.41137 -0.500224 -0.508205 -0.516585 -0.537045 -0.537061 -0.511508 -0.511523 -0.511538 
-0.519833 -0.519848 -0.503503 -0.49968 -0.503533 -0.507587 -0.511642 -0.511657 -0.503592 
-0.507647 -0.49156 -0.495438 -0.495452 -0.519305 -0.541083 -0.550251 -0.415852 -0.421158 
-0.496361 -0.496375 -0.500755 -0.496894 -0.514327 -0.499201 -0.502958 -0.502972 -0.422594 
-0.425521 -0.428239 -0.507846 -0.537109 -0.508351 -0.500651 -0.547765 -0.561382 -0.606522 
-0.429409 -0.429421 -0.432199 -0.489234 -0.496271 -0.489261 -0.558144 -0.544736 -0.52387 
-0.525282 -0.521392 -0.525754 -0.70099 -0.441804 -0.560871 -0.556319 -0.561297 -0.536652 
-0.540874 -0.53668 -0.537138 -0.537153 -0.451408 -0.492904 -0.592478 -0.55983 -0.542734 
-0.555415 -0.52796 -0.548479 -0.561388 -0.561403 -0.702841 -0.696296 -0.492938 -0.594964 
-0.604958 -0.590233 -0.604989 -0.543171 -0.543185 -0.535126 -0.531448 -0.52754 -0.523863 
-0.520185 -0.520198 -0.493013 -0.489789 -0.5927 -0.592715 -0.612395 -0.648973 -0.549996 
-0.558244 -0.523245 -0.523258 -0.523271 -0.527195 -0.534739 -0.542519 -0.7182 -0.477352 
-0.651214 -0.599957 -0.595254 -0.599987 -0.624805 -0.650646 -0.645392 -0.634628 -0.53374 
-0.530155 -0.530168 -0.530194 -0.530208 -0.533819 -0.541509 -0.537684 -0.541535 -0.496508 
-0.675649 -0.642491 -0.607 -0.540529 -0.536631 -0.536644 -0.536657 -0.548159 -0.552084 
-0.552097 -0.556022 -0.548212 -0.548226 -0.512848 -0.720377 -0.707414 -0.660654 -0.649641 
-0.600006 -0.595543 -0.515842 -0.515855 -0.515867 -0.536904 -0.54415 -0.720881 -0.597883 
-0.597897 -0.589045 -0.589059 -0.532427 -0.532439 -0.536007 -0.562256 -0.570143 -0.586584 
-0.586597 -0.604301 -0.604315 -0.599945 -0.595832 -0.557052 -0.560943 -0.568454 -0.568493 
-0.576522 -0.584809 -0.584637 -0.58465 -0.584663 -0.593811 -0.593825 -0.589638 -0.589652 
-0.593865 -0.544782 -0.551895 -0.555589 -0.555614 -0.562991 -0.537863 -0.527879 -0.527891 
-0.534479 -0.541595 -0.586964 -0.586799 -0.586812 -0.586825 -0.595934 -0.60022 -0.600233 
-0.600246 -0.60026 -0.561747 -0.569251 -0.565518 -0.561784 -0.554572 -0.543917 -0.540509 
-0.544001 -0.544013 -0.544025 -0.551263 -0.558235 -0.565742 -0.605986 -0.593018 -0.589233 